# vtk DataFile Version 2.0
created with u.punto.2vtk0
ASCII
DATASET POLYDATA
POINTS 20 float
1 0 0
0.951057 0.309017 0
0.809017 0.587785 0
0.587785 0.809017 0
0.309017 0.951057 0
6.12323e-17 1 0
-0.309017 0.951057 0
-0.587785 0.809017 0
-0.809017 0.587785 0
-0.951057 0.309017 0
-1 1.22465e-16 0
-0.951057 -0.309017 0
-0.809017 -0.587785 0
-0.587785 -0.809017 0
-0.309017 -0.951057 0
-1.83697e-16 -1 0
0.309017 -0.951057 0
0.587785 -0.809017 0
0.809017 -0.587785 0
0.951057 -0.309017 0
POINT_DATA 20
SCALARS id float
LOOKUP_TABLE default
1
2
3
4
5
6
7
8
9
10
11
12
13
14
15
16
17
18
19
20
# vtk DataFile Version 2.0
created with u.punto.2vtk0
ASCII
DATASET POLYDATA
POINTS 20 float
2 0 0
1.90211 0.618034 0
1.61803 1.17557 0
1.17557 1.61803 0
0.618034 1.90211 0
1.22465e-16 2 0
-0.618034 1.90211 0
-1.17557 1.61803 0
-1.61803 1.17557 0
-1.90211 0.618034 0
-2 2.44929e-16 0
-1.90211 -0.618034 0
-1.61803 -1.17557 0
-1.17557 -1.61803 0
-0.618034 -1.90211 0
-3.67394e-16 -2 0
0.618034 -1.90211 0
1.17557 -1.61803 0
1.61803 -1.17557 0
1.90211 -0.618034 0
POINT_DATA 20
SCALARS id float
LOOKUP_TABLE default
1
2
3
4
5
6
7
8
9
10
11
12
13
14
15
16
17
18
19
20
