<?xml version="1.0"?>
<VTKFile byte_order="LittleEndian" version="1.0" type="ImageData">
<ImageData Origin="0.0000000000000000e+00 0.0000000000000000e+00 0.0000000000000000e+00" WholeExtent="0 29 0 29 0 29" Spacing="6.8965518474578857e-01 6.8965518474578857e-01 6.8965518474578857e-01">
<Piece Extent="0 29 0 29 0 29">
<PointData Scalars="wall">
<DataArray type="Float64" Name="wall" NumberOfComponents="1" format="ascii"/>-3.000000e+00
-3.000000e+00
-3.000000e+00
-3.000000e+00
-3.000000e+00
-3.000000e+00
-3.000000e+00
-3.000000e+00
-3.000000e+00
-3.000000e+00
-3.000000e+00
-3.000000e+00
-3.000000e+00
-3.000000e+00
-3.000000e+00
-3.000000e+00
-3.000000e+00
-3.000000e+00
-3.000000e+00
-3.000000e+00
-3.000000e+00
-3.000000e+00
-3.000000e+00
-3.000000e+00
-3.000000e+00
-3.000000e+00
-3.000000e+00
-3.000000e+00
-3.000000e+00
-3.000000e+00
-3.000000e+00
-3.000000e+00
-3.000000e+00
-3.000000e+00
-3.000000e+00
-3.000000e+00
-3.000000e+00
-3.000000e+00
-3.000000e+00
-3.000000e+00
-3.000000e+00
-3.000000e+00
-3.000000e+00
-3.000000e+00
-2.972407e+00
-2.902642e+00
-2.892204e+00
-2.941248e+00
-3.000000e+00
-3.000000e+00
-3.000000e+00
-3.000000e+00
-3.000000e+00
-3.000000e+00
-3.000000e+00
-3.000000e+00
-3.000000e+00
-3.000000e+00
-3.000000e+00
-3.000000e+00
-3.000000e+00
-3.000000e+00
-3.000000e+00
-3.000000e+00
-3.000000e+00
-3.000000e+00
-3.000000e+00
-3.000000e+00
-3.000000e+00
-3.000000e+00
-3.000000e+00
-2.895685e+00
-2.641008e+00
-2.440321e+00
-2.298697e+00
-2.220132e+00
-2.206903e+00
-2.259190e+00
-2.375124e+00
-2.551180e+00
-2.782748e+00
-3.000000e+00
-3.000000e+00
-3.000000e+00
-3.000000e+00
-3.000000e+00
-3.000000e+00
-3.000000e+00
-3.000000e+00
-3.000000e+00
-3.000000e+00
-3.000000e+00
-3.000000e+00
-3.000000e+00
-3.000000e+00
-3.000000e+00
-3.000000e+00
-3.000000e+00
-3.000000e+00
-2.989537e+00
-2.616138e+00
-2.286325e+00
-2.006695e+00
-1.784290e+00
-1.625902e+00
-1.537014e+00
-1.520763e+00
-1.577333e+00
-1.704082e+00
-1.896245e+00
-2.147831e+00
-2.452419e+00
-2.803680e+00
-3.000000e+00
-3.000000e+00
-3.000000e+00
-3.000000e+00
-3.000000e+00
-3.000000e+00
-3.000000e+00
-3.000000e+00
-3.000000e+00
-3.000000e+00
-3.000000e+00
-3.000000e+00
-3.000000e+00
-3.000000e+00
-3.000000e+00
-2.892091e+00
-2.452280e+00
-2.049117e+00
-1.689294e+00
-1.380813e+00
-1.132744e+00
-9.542863e-01
-8.531210e-01
-8.336355e-01
-8.959470e-01
-1.036211e+00
-1.247865e+00
-1.523062e+00
-1.853756e+00
-2.232335e+00
-2.651901e+00
-3.000000e+00
-3.000000e+00
-3.000000e+00
-3.000000e+00
-3.000000e+00
-3.000000e+00
-3.000000e+00
-3.000000e+00
-3.000000e+00
-3.000000e+00
-3.000000e+00
-3.000000e+00
-3.000000e+00
-2.906183e+00
-2.407136e+00
-1.936935e+00
-1.501357e+00
-1.107819e+00
-7.658507e-01
-4.871113e-01
-2.842360e-01
-1.682240e-01
-1.453524e-01
-2.155073e-01
-3.729134e-01
-6.083841e-01
-9.115736e-01
-1.272426e+00
-1.681842e+00
-2.131864e+00
-2.615672e+00
-3.000000e+00
-3.000000e+00
-3.000000e+00
-3.000000e+00
-3.000000e+00
-3.000000e+00
-3.000000e+00
-3.000000e+00
-3.000000e+00
-3.000000e+00
-3.000000e+00
-3.000000e+00
-2.477054e+00
-1.949478e+00
-1.447648e+00
-9.772762e-01
-5.461679e-01
-1.652908e-01
1.505193e-01
3.836825e-01
5.180058e-01
5.442618e-01
4.631623e-01
2.836632e-01
1.882106e-02
-3.176981e-01
-7.134005e-01
-1.157513e+00
-1.640979e+00
-2.156290e+00
-2.697291e+00
-3.000000e+00
-3.000000e+00
-3.000000e+00
-3.000000e+00
-3.000000e+00
-3.000000e+00
-3.000000e+00
-3.000000e+00
-3.000000e+00
-3.000000e+00
-2.652504e+00
-2.078764e+00
-1.523006e+00
-9.891246e-01
-4.822789e-01
-9.989456e-03
4.159001e-01
7.769915e-01
1.048592e+00
1.206059e+00
1.235346e+00
1.138598e+00
9.301548e-01
6.287883e-01
2.524873e-01
-1.833937e-01
-6.662844e-01
-1.186059e+00
-1.734647e+00
-2.305694e+00
-2.894242e+00
-3.000000e+00
-3.000000e+00
-3.000000e+00
-3.000000e+00
-3.000000e+00
-3.000000e+00
-3.000000e+00
-3.000000e+00
-2.919797e+00
-2.311076e+00
-1.714145e+00
-1.131555e+00
-5.664069e-01
-2.272294e-02
4.933467e-01
9.705310e-01
1.387339e+00
1.709058e+00
1.896691e+00
1.927870e+00
1.808124e+00
1.561146e+00
1.214064e+00
7.903020e-01
3.084100e-01
-2.172474e-01
-7.756628e-01
-1.358504e+00
-1.959545e+00
-2.574181e+00
-3.000000e+00
-3.000000e+00
-3.000000e+00
-3.000000e+00
-3.000000e+00
-3.000000e+00
-3.000000e+00
-3.000000e+00
-2.629478e+00
-2.003006e+00
-1.385350e+00
-7.784181e-01
-1.843461e-01
3.944643e-01
9.546012e-01
1.488167e+00
1.973395e+00
2.362580e+00
2.591138e+00
2.621275e+00
2.466690e+00
2.167650e+00
1.763160e+00
1.283103e+00
7.493445e-01
1.777401e-01
-4.203565e-01
-1.036950e+00
-1.666491e+00
-2.305150e+00
-2.950294e+00
-3.000000e+00
-3.000000e+00
-3.000000e+00
-3.000000e+00
-3.000000e+00
-3.000000e+00
-3.000000e+00
-2.369972e+00
-1.728597e+00
-1.093394e+00
-4.656703e-01
1.533217e-01
7.628626e-01
1.363264e+00
1.954031e+00
2.521094e+00
3.000000e+00
3.000000e+00
3.000000e+00
3.000000e+00
2.734162e+00
2.257798e+00
1.712199e+00
1.122044e+00
5.036061e-01
-1.326384e-01
-7.800734e-01
-1.434566e+00
-2.093532e+00
-2.755355e+00
-3.000000e+00
-3.000000e+00
-3.000000e+00
-3.000000e+00
-3.000000e+00
-3.000000e+00
-2.796716e+00
-2.140190e+00
-1.486944e+00
-8.377445e-01
-1.934462e-01
4.452521e-01
1.078637e+00
1.710071e+00
2.349235e+00
3.000000e+00
3.000000e+00
3.000000e+00
3.000000e+00
3.000000e+00
3.000000e+00
2.668041e+00
2.050130e+00
1.403673e+00
7.424784e-01
7.395148e-02
-5.980088e-01
-1.271377e+00
-1.945110e+00
-2.618687e+00
-3.000000e+00
-3.000000e+00
-3.000000e+00
-3.000000e+00
-3.000000e+00
-3.000000e+00
-2.602643e+00
-1.938353e+00
-1.276070e+00
-6.162795e-01
4.043568e-02
6.935467e-01
1.343213e+00
1.992761e+00
2.657279e+00
3.000000e+00
3.000000e+00
3.000000e+00
3.000000e+00
3.000000e+00
3.000000e+00
2.945434e+00
2.259591e+00
1.567765e+00
8.762541e-01
1.871108e-01
-4.992288e-01
-1.182912e+00
-1.864257e+00
-2.543606e+00
-3.000000e+00
-3.000000e+00
-3.000000e+00
-3.000000e+00
-3.000000e+00
-3.000000e+00
-2.432781e+00
-1.762637e+00
-1.093591e+00
-4.259466e-01
2.398934e-01
9.034207e-01
1.564157e+00
2.222577e+00
2.885766e+00
3.000000e+00
3.000000e+00
3.000000e+00
3.000000e+00
3.000000e+00
3.000000e+00
3.000000e+00
2.301615e+00
1.592149e+00
8.922492e-01
1.993465e-01
-4.883958e-01
-1.172270e+00
-1.853188e+00
-2.531806e+00
-3.000000e+00
-3.000000e+00
-3.000000e+00
-3.000000e+00
-3.000000e+00
-2.961590e+00
-2.286741e+00
-1.612173e+00
-9.379727e-01
-2.642649e-01
4.087572e-01
1.080792e+00
1.751336e+00
2.419520e+00
3.000000e+00
3.000000e+00
3.000000e+00
3.000000e+00
3.000000e+00
3.000000e+00
3.000000e+00
2.859132e+00
2.160828e+00
1.472340e+00
7.898136e-01
1.111690e-01
-5.648086e-01
-1.238879e+00
-1.911538e+00
-2.583124e+00
-3.000000e+00
-3.000000e+00
-3.000000e+00
-3.000000e+00
-3.000000e+00
-2.843397e+00
-2.165901e+00
-1.488124e+00
-8.099515e-01
-1.311959e-01
5.484624e-01
1.229627e+00
1.913576e+00
2.603510e+00
3.000000e+00
3.000000e+00
3.000000e+00
3.000000e+00
3.000000e+00
3.000000e+00
3.000000e+00
2.495277e+00
1.867407e+00
1.228206e+00
5.820512e-01
-6.866770e-02
-7.225392e-01
-1.378681e+00
-2.036508e+00
-2.695621e+00
-3.000000e+00
-3.000000e+00
-3.000000e+00
-3.000000e+00
-3.000000e+00
-2.752522e+00
-2.073851e+00
-1.394329e+00
-7.134863e-01
-3.047599e-02
6.563439e-01
1.350487e+00
2.060491e+00
2.810841e+00
3.000000e+00
3.000000e+00
3.000000e+00
3.000000e+00
3.000000e+00
3.000000e+00
2.549802e+00
2.033936e+00
1.477118e+00
8.928134e-01
2.897434e-01
-3.265108e-01
-9.523032e-01
-1.585187e+00
-2.223468e+00
-2.865942e+00
-3.000000e+00
-3.000000e+00
-3.000000e+00
-3.000000e+00
-3.000000e+00
-2.694014e+00
-2.016312e+00
-1.337261e+00
-6.558347e-01
2.994396e-02
7.241250e-01
1.435596e+00
2.185128e+00
3.000000e+00
3.000000e+00
3.000000e+00
3.000000e+00
3.000000e+00
2.827574e+00
2.430817e+00
2.005074e+00
1.538275e+00
1.032580e+00
4.950958e-01
-6.707507e-02
-6.481763e-01
-1.243846e+00
-1.850844e+00
-2.466761e+00
-3.000000e+00
-3.000000e+00
-3.000000e+00
-3.000000e+00
-3.000000e+00
-3.000000e+00
-2.674231e+00
-2.000603e+00
-1.325408e+00
-6.469809e-01
3.794247e-02
7.358490e-01
1.459372e+00
2.229231e+00
3.000000e+00
3.000000e+00
3.000000e+00
3.000000e+00
2.635473e+00
2.252591e+00
1.868230e+00
1.461279e+00
1.023798e+00
5.537021e-01
5.327945e-02
-4.732841e-01
-1.021559e+00
-1.587590e+00
-2.168086e+00
-2.760389e+00
-3.000000e+00
-3.000000e+00
-3.000000e+00
-3.000000e+00
-3.000000e+00
-3.000000e+00
-2.700207e+00
-2.034861e+00
-1.368382e+00
-6.987363e-01
-2.216914e-02
6.675349e-01
1.377270e+00
2.096939e+00
2.725724e+00
2.990306e+00
2.779941e+00
2.393630e+00
2.021953e+00
1.664720e+00
1.296501e+00
9.069904e-01
4.917402e-01
4.861106e-02
-4.221124e-01
-9.183293e-01
-1.437075e+00
-1.975226e+00
-2.529870e+00
-3.000000e+00
-3.000000e+00
-3.000000e+00
-3.000000e+00
-3.000000e+00
-3.000000e+00
-3.000000e+00
-2.778957e+00
-2.127185e+00
-1.475830e+00
-8.232703e-01
-1.672436e-01
4.930556e-01
1.146957e+00
1.741343e+00
2.140762e+00
2.211375e+00
2.016383e+00
1.719616e+00
1.399802e+00
1.066234e+00
7.140372e-01
3.404062e-01
-5.640852e-02
-4.777986e-01
-9.241232e-01
-1.394492e+00
-1.887093e+00
-2.399663e+00
-2.929836e+00
-3.000000e+00
-3.000000e+00
-3.000000e+00
-3.000000e+00
-3.000000e+00
-3.000000e+00
-3.000000e+00
-2.916728e+00
-2.284619e+00
-1.655946e+00
-1.030584e+00
-4.100666e-01
1.969769e-01
7.607795e-01
1.210935e+00
1.453375e+00
1.459362e+00
1.299450e+00
1.056585e+00
7.722925e-01
4.595918e-01
1.225771e-01
-2.367772e-01
-6.179438e-01
-1.021337e+00
-1.447336e+00
-1.895671e+00
-2.365339e+00
-2.854815e+00
-3.000000e+00
-3.000000e+00
-3.000000e+00
-3.000000e+00
-3.000000e+00
-3.000000e+00
-3.000000e+00
-3.000000e+00
-3.000000e+00
-2.511947e+00
-1.913536e+00
-1.325109e+00
-7.530043e-01
-2.144625e-01
2.523929e-01
5.888987e-01
7.489647e-01
7.396003e-01
6.080527e-01
3.996476e-01
1.412490e-01
-1.533153e-01
-4.761620e-01
-8.225451e-01
-1.190160e+00
-1.578399e+00
-1.987319e+00
-2.416875e+00
-2.866569e+00
-3.000000e+00
-3.000000e+00
-3.000000e+00
-3.000000e+00
-3.000000e+00
-3.000000e+00
-3.000000e+00
-3.000000e+00
-3.000000e+00
-3.000000e+00
-2.810383e+00
-2.248102e+00
-1.702986e+00
-1.185108e+00
-7.156047e-01
-3.297198e-01
-6.677875e-02
5.355795e-02
4.322542e-02
-6.845525e-02
-2.535721e-01
-4.922390e-01
-7.710792e-01
-1.080826e+00
-1.415277e+00
-1.770885e+00
-2.146110e+00
-2.540529e+00
-2.954044e+00
-3.000000e+00
-3.000000e+00
-3.000000e+00
-3.000000e+00
-3.000000e+00
-3.000000e+00
-3.000000e+00
-3.000000e+00
-3.000000e+00
-3.000000e+00
-3.000000e+00
-3.000000e+00
-2.652966e+00
-2.152109e+00
-1.685794e+00
-1.274805e+00
-9.474889e-01
-7.291923e-01
-6.290184e-01
-6.375180e-01
-7.357293e-01
-9.043612e-01
-1.127484e+00
-1.392656e+00
-1.690360e+00
-2.013753e+00
-2.358498e+00
-2.722304e+00
-3.000000e+00
-3.000000e+00
-3.000000e+00
-3.000000e+00
-3.000000e+00
-3.000000e+00
-3.000000e+00
-3.000000e+00
-3.000000e+00
-3.000000e+00
-3.000000e+00
-3.000000e+00
-3.000000e+00
-3.000000e+00
-3.000000e+00
-2.655450e+00
-2.232451e+00
-1.866199e+00
-1.579182e+00
-1.388928e+00
-1.300740e+00
-1.307854e+00
-1.396969e+00
-1.553479e+00
-1.764035e+00
-2.017268e+00
-2.303938e+00
-2.617045e+00
-2.951807e+00
-3.000000e+00
-3.000000e+00
-3.000000e+00
-3.000000e+00
-3.000000e+00
-3.000000e+00
-3.000000e+00
-3.000000e+00
-3.000000e+00
-3.000000e+00
-3.000000e+00
-3.000000e+00
-3.000000e+00
-3.000000e+00
-3.000000e+00
-3.000000e+00
-3.000000e+00
-2.806520e+00
-2.473335e+00
-2.214716e+00
-2.043837e+00
-1.964337e+00
-1.971134e+00
-2.054086e+00
-2.201398e+00
-2.401582e+00
-2.644324e+00
-2.920900e+00
-3.000000e+00
-3.000000e+00
-3.000000e+00
-3.000000e+00
-3.000000e+00
-3.000000e+00
-3.000000e+00
-3.000000e+00
-3.000000e+00
-3.000000e+00
-3.000000e+00
-3.000000e+00
-3.000000e+00
-3.000000e+00
-3.000000e+00
-3.000000e+00
-3.000000e+00
-3.000000e+00
-3.000000e+00
-3.000000e+00
-3.000000e+00
-2.850196e+00
-2.694241e+00
-2.622078e+00
-2.629517e+00
-2.708280e+00
-2.848428e+00
-3.000000e+00
-3.000000e+00
-3.000000e+00
-3.000000e+00
-3.000000e+00
-3.000000e+00
-3.000000e+00
-3.000000e+00
-3.000000e+00
-3.000000e+00
-3.000000e+00
-3.000000e+00
-3.000000e+00
-3.000000e+00
-3.000000e+00
-3.000000e+00
-3.000000e+00
-3.000000e+00
-3.000000e+00
-3.000000e+00
-3.000000e+00
-3.000000e+00
-3.000000e+00
-3.000000e+00
-3.000000e+00
-3.000000e+00
-3.000000e+00
-3.000000e+00
-3.000000e+00
-3.000000e+00
-3.000000e+00
-3.000000e+00
-3.000000e+00
-3.000000e+00
-3.000000e+00
-3.000000e+00
-3.000000e+00
-3.000000e+00
-3.000000e+00
-3.000000e+00
-3.000000e+00
-3.000000e+00
-3.000000e+00
-3.000000e+00
-3.000000e+00
-3.000000e+00
-3.000000e+00
-3.000000e+00
-3.000000e+00
-3.000000e+00
-3.000000e+00
-3.000000e+00
-3.000000e+00
-3.000000e+00
-3.000000e+00
-3.000000e+00
-3.000000e+00
-3.000000e+00
-3.000000e+00
-3.000000e+00
-3.000000e+00
-3.000000e+00
-3.000000e+00
-3.000000e+00
-3.000000e+00
-3.000000e+00
-3.000000e+00
-3.000000e+00
-3.000000e+00
-3.000000e+00
-3.000000e+00
-3.000000e+00
-3.000000e+00
-3.000000e+00
-3.000000e+00
-3.000000e+00
-3.000000e+00
-3.000000e+00
-3.000000e+00
-3.000000e+00
-3.000000e+00
-3.000000e+00
-3.000000e+00
-3.000000e+00
-3.000000e+00
-3.000000e+00
-3.000000e+00
-3.000000e+00
-3.000000e+00
-3.000000e+00
-3.000000e+00
-3.000000e+00
-3.000000e+00
-3.000000e+00
-3.000000e+00
-3.000000e+00
-3.000000e+00
-3.000000e+00
-3.000000e+00
-3.000000e+00
-3.000000e+00
-3.000000e+00
-3.000000e+00
-3.000000e+00
-3.000000e+00
-3.000000e+00
-3.000000e+00
-3.000000e+00
-3.000000e+00
-3.000000e+00
-3.000000e+00
-3.000000e+00
-3.000000e+00
-3.000000e+00
-3.000000e+00
-3.000000e+00
-3.000000e+00
-3.000000e+00
-3.000000e+00
-2.972407e+00
-2.902642e+00
-2.892204e+00
-2.941248e+00
-3.000000e+00
-3.000000e+00
-3.000000e+00
-3.000000e+00
-3.000000e+00
-3.000000e+00
-3.000000e+00
-3.000000e+00
-3.000000e+00
-3.000000e+00
-3.000000e+00
-3.000000e+00
-3.000000e+00
-3.000000e+00
-3.000000e+00
-3.000000e+00
-3.000000e+00
-3.000000e+00
-3.000000e+00
-3.000000e+00
-3.000000e+00
-3.000000e+00
-3.000000e+00
-2.895685e+00
-2.641008e+00
-2.440321e+00
-2.298697e+00
-2.220132e+00
-2.206903e+00
-2.259190e+00
-2.375124e+00
-2.551180e+00
-2.782748e+00
-3.000000e+00
-3.000000e+00
-3.000000e+00
-3.000000e+00
-3.000000e+00
-3.000000e+00
-3.000000e+00
-3.000000e+00
-3.000000e+00
-3.000000e+00
-3.000000e+00
-3.000000e+00
-3.000000e+00
-3.000000e+00
-3.000000e+00
-3.000000e+00
-3.000000e+00
-3.000000e+00
-2.989537e+00
-2.616138e+00
-2.286325e+00
-2.006695e+00
-1.784290e+00
-1.625902e+00
-1.537014e+00
-1.520763e+00
-1.577333e+00
-1.704082e+00
-1.896245e+00
-2.147831e+00
-2.452419e+00
-2.803680e+00
-3.000000e+00
-3.000000e+00
-3.000000e+00
-3.000000e+00
-3.000000e+00
-3.000000e+00
-3.000000e+00
-3.000000e+00
-3.000000e+00
-3.000000e+00
-3.000000e+00
-3.000000e+00
-3.000000e+00
-3.000000e+00
-3.000000e+00
-2.892091e+00
-2.452280e+00
-2.049117e+00
-1.689294e+00
-1.380813e+00
-1.132744e+00
-9.542863e-01
-8.531210e-01
-8.336355e-01
-8.959470e-01
-1.036211e+00
-1.247865e+00
-1.523062e+00
-1.853756e+00
-2.232335e+00
-2.651901e+00
-3.000000e+00
-3.000000e+00
-3.000000e+00
-3.000000e+00
-3.000000e+00
-3.000000e+00
-3.000000e+00
-3.000000e+00
-3.000000e+00
-3.000000e+00
-3.000000e+00
-3.000000e+00
-3.000000e+00
-2.906183e+00
-2.407136e+00
-1.936935e+00
-1.501357e+00
-1.107819e+00
-7.658507e-01
-4.871113e-01
-2.842360e-01
-1.682240e-01
-1.453524e-01
-2.155073e-01
-3.729134e-01
-6.083841e-01
-9.115736e-01
-1.272426e+00
-1.681842e+00
-2.131864e+00
-2.615672e+00
-3.000000e+00
-3.000000e+00
-3.000000e+00
-3.000000e+00
-3.000000e+00
-3.000000e+00
-3.000000e+00
-3.000000e+00
-3.000000e+00
-3.000000e+00
-3.000000e+00
-3.000000e+00
-2.477054e+00
-1.949478e+00
-1.447648e+00
-9.772762e-01
-5.461679e-01
-1.652908e-01
1.505193e-01
3.836825e-01
5.180058e-01
5.442618e-01
4.631623e-01
2.836632e-01
1.882106e-02
-3.176981e-01
-7.134005e-01
-1.157513e+00
-1.640979e+00
-2.156290e+00
-2.697291e+00
-3.000000e+00
-3.000000e+00
-3.000000e+00
-3.000000e+00
-3.000000e+00
-3.000000e+00
-3.000000e+00
-3.000000e+00
-3.000000e+00
-3.000000e+00
-2.652504e+00
-2.078764e+00
-1.523006e+00
-9.891246e-01
-4.822789e-01
-9.989456e-03
4.159001e-01
7.769915e-01
1.048592e+00
1.206059e+00
1.235346e+00
1.138598e+00
9.301548e-01
6.287883e-01
2.524873e-01
-1.833937e-01
-6.662844e-01
-1.186059e+00
-1.734647e+00
-2.305694e+00
-2.894242e+00
-3.000000e+00
-3.000000e+00
-3.000000e+00
-3.000000e+00
-3.000000e+00
-3.000000e+00
-3.000000e+00
-3.000000e+00
-2.919797e+00
-2.311076e+00
-1.714145e+00
-1.131555e+00
-5.664069e-01
-2.272294e-02
4.933467e-01
9.705310e-01
1.387339e+00
1.709058e+00
1.896691e+00
1.927870e+00
1.808124e+00
1.561146e+00
1.214064e+00
7.903020e-01
3.084100e-01
-2.172474e-01
-7.756628e-01
-1.358504e+00
-1.959545e+00
-2.574181e+00
-3.000000e+00
-3.000000e+00
-3.000000e+00
-3.000000e+00
-3.000000e+00
-3.000000e+00
-3.000000e+00
-3.000000e+00
-2.629478e+00
-2.003006e+00
-1.385350e+00
-7.784181e-01
-1.843461e-01
3.944643e-01
9.546012e-01
1.488167e+00
1.973395e+00
2.362580e+00
2.591138e+00
2.621275e+00
2.466690e+00
2.167650e+00
1.763160e+00
1.283103e+00
7.493445e-01
1.777401e-01
-4.203565e-01
-1.036950e+00
-1.666491e+00
-2.305150e+00
-2.950294e+00
-3.000000e+00
-3.000000e+00
-3.000000e+00
-3.000000e+00
-3.000000e+00
-3.000000e+00
-3.000000e+00
-2.369972e+00
-1.728597e+00
-1.093394e+00
-4.656703e-01
1.533217e-01
7.628626e-01
1.363264e+00
1.954031e+00
2.521094e+00
3.000000e+00
3.000000e+00
3.000000e+00
3.000000e+00
2.734162e+00
2.257798e+00
1.712199e+00
1.122044e+00
5.036061e-01
-1.326384e-01
-7.800734e-01
-1.434566e+00
-2.093532e+00
-2.755355e+00
-3.000000e+00
-3.000000e+00
-3.000000e+00
-3.000000e+00
-3.000000e+00
-3.000000e+00
-2.796716e+00
-2.140190e+00
-1.486944e+00
-8.377445e-01
-1.934462e-01
4.452521e-01
1.078637e+00
1.710071e+00
2.349235e+00
3.000000e+00
3.000000e+00
3.000000e+00
3.000000e+00
3.000000e+00
3.000000e+00
2.668041e+00
2.050130e+00
1.403673e+00
7.424784e-01
7.395148e-02
-5.980088e-01
-1.271377e+00
-1.945110e+00
-2.618687e+00
-3.000000e+00
-3.000000e+00
-3.000000e+00
-3.000000e+00
-3.000000e+00
-3.000000e+00
-2.602643e+00
-1.938353e+00
-1.276070e+00
-6.162795e-01
4.043568e-02
6.935467e-01
1.343213e+00
1.992761e+00
2.657279e+00
3.000000e+00
3.000000e+00
3.000000e+00
3.000000e+00
3.000000e+00
3.000000e+00
2.945434e+00
2.259591e+00
1.567765e+00
8.762541e-01
1.871108e-01
-4.992288e-01
-1.182912e+00
-1.864257e+00
-2.543606e+00
-3.000000e+00
-3.000000e+00
-3.000000e+00
-3.000000e+00
-3.000000e+00
-3.000000e+00
-2.432781e+00
-1.762637e+00
-1.093591e+00
-4.259466e-01
2.398934e-01
9.034207e-01
1.564157e+00
2.222577e+00
2.885766e+00
3.000000e+00
3.000000e+00
3.000000e+00
3.000000e+00
3.000000e+00
3.000000e+00
3.000000e+00
2.301615e+00
1.592149e+00
8.922492e-01
1.993465e-01
-4.883958e-01
-1.172270e+00
-1.853188e+00
-2.531806e+00
-3.000000e+00
-3.000000e+00
-3.000000e+00
-3.000000e+00
-3.000000e+00
-2.961590e+00
-2.286741e+00
-1.612173e+00
-9.379727e-01
-2.642649e-01
4.087572e-01
1.080792e+00
1.751336e+00
2.419520e+00
3.000000e+00
3.000000e+00
3.000000e+00
3.000000e+00
3.000000e+00
3.000000e+00
3.000000e+00
2.859132e+00
2.160828e+00
1.472340e+00
7.898136e-01
1.111690e-01
-5.648086e-01
-1.238879e+00
-1.911538e+00
-2.583124e+00
-3.000000e+00
-3.000000e+00
-3.000000e+00
-3.000000e+00
-3.000000e+00
-2.843397e+00
-2.165901e+00
-1.488124e+00
-8.099515e-01
-1.311959e-01
5.484624e-01
1.229627e+00
1.913576e+00
2.603510e+00
3.000000e+00
3.000000e+00
3.000000e+00
3.000000e+00
3.000000e+00
3.000000e+00
3.000000e+00
2.495277e+00
1.867407e+00
1.228206e+00
5.820512e-01
-6.866770e-02
-7.225392e-01
-1.378681e+00
-2.036508e+00
-2.695621e+00
-3.000000e+00
-3.000000e+00
-3.000000e+00
-3.000000e+00
-3.000000e+00
-2.752522e+00
-2.073851e+00
-1.394329e+00
-7.134863e-01
-3.047599e-02
6.563439e-01
1.350487e+00
2.060491e+00
2.810841e+00
3.000000e+00
3.000000e+00
3.000000e+00
3.000000e+00
3.000000e+00
3.000000e+00
2.549802e+00
2.033936e+00
1.477118e+00
8.928134e-01
2.897434e-01
-3.265108e-01
-9.523032e-01
-1.585187e+00
-2.223468e+00
-2.865942e+00
-3.000000e+00
-3.000000e+00
-3.000000e+00
-3.000000e+00
-3.000000e+00
-2.694014e+00
-2.016312e+00
-1.337261e+00
-6.558347e-01
2.994396e-02
7.241250e-01
1.435596e+00
2.185128e+00
3.000000e+00
3.000000e+00
3.000000e+00
3.000000e+00
3.000000e+00
2.827574e+00
2.430817e+00
2.005074e+00
1.538275e+00
1.032580e+00
4.950958e-01
-6.707507e-02
-6.481763e-01
-1.243846e+00
-1.850844e+00
-2.466761e+00
-3.000000e+00
-3.000000e+00
-3.000000e+00
-3.000000e+00
-3.000000e+00
-3.000000e+00
-2.674231e+00
-2.000603e+00
-1.325408e+00
-6.469809e-01
3.794247e-02
7.358490e-01
1.459372e+00
2.229231e+00
3.000000e+00
3.000000e+00
3.000000e+00
3.000000e+00
2.635473e+00
2.252591e+00
1.868230e+00
1.461279e+00
1.023798e+00
5.537021e-01
5.327945e-02
-4.732841e-01
-1.021559e+00
-1.587590e+00
-2.168086e+00
-2.760389e+00
-3.000000e+00
-3.000000e+00
-3.000000e+00
-3.000000e+00
-3.000000e+00
-3.000000e+00
-2.700207e+00
-2.034861e+00
-1.368382e+00
-6.987363e-01
-2.216914e-02
6.675349e-01
1.377270e+00
2.096939e+00
2.725724e+00
2.990306e+00
2.779941e+00
2.393630e+00
2.021953e+00
1.664720e+00
1.296501e+00
9.069904e-01
4.917402e-01
4.861106e-02
-4.221124e-01
-9.183293e-01
-1.437075e+00
-1.975226e+00
-2.529870e+00
-3.000000e+00
-3.000000e+00
-3.000000e+00
-3.000000e+00
-3.000000e+00
-3.000000e+00
-3.000000e+00
-2.778957e+00
-2.127185e+00
-1.475830e+00
-8.232703e-01
-1.672436e-01
4.930556e-01
1.146957e+00
1.741343e+00
2.140762e+00
2.211375e+00
2.016383e+00
1.719616e+00
1.399802e+00
1.066234e+00
7.140372e-01
3.404062e-01
-5.640852e-02
-4.777986e-01
-9.241232e-01
-1.394492e+00
-1.887093e+00
-2.399663e+00
-2.929836e+00
-3.000000e+00
-3.000000e+00
-3.000000e+00
-3.000000e+00
-3.000000e+00
-3.000000e+00
-3.000000e+00
-2.916728e+00
-2.284619e+00
-1.655946e+00
-1.030584e+00
-4.100666e-01
1.969769e-01
7.607795e-01
1.210935e+00
1.453375e+00
1.459362e+00
1.299450e+00
1.056585e+00
7.722925e-01
4.595918e-01
1.225771e-01
-2.367772e-01
-6.179438e-01
-1.021337e+00
-1.447336e+00
-1.895671e+00
-2.365339e+00
-2.854815e+00
-3.000000e+00
-3.000000e+00
-3.000000e+00
-3.000000e+00
-3.000000e+00
-3.000000e+00
-3.000000e+00
-3.000000e+00
-3.000000e+00
-2.511947e+00
-1.913536e+00
-1.325109e+00
-7.530043e-01
-2.144625e-01
2.523929e-01
5.888987e-01
7.489647e-01
7.396003e-01
6.080527e-01
3.996476e-01
1.412490e-01
-1.533153e-01
-4.761620e-01
-8.225451e-01
-1.190160e+00
-1.578399e+00
-1.987319e+00
-2.416875e+00
-2.866569e+00
-3.000000e+00
-3.000000e+00
-3.000000e+00
-3.000000e+00
-3.000000e+00
-3.000000e+00
-3.000000e+00
-3.000000e+00
-3.000000e+00
-3.000000e+00
-2.810383e+00
-2.248102e+00
-1.702986e+00
-1.185108e+00
-7.156047e-01
-3.297198e-01
-6.677875e-02
5.355795e-02
4.322542e-02
-6.845525e-02
-2.535721e-01
-4.922390e-01
-7.710792e-01
-1.080826e+00
-1.415277e+00
-1.770885e+00
-2.146110e+00
-2.540529e+00
-2.954044e+00
-3.000000e+00
-3.000000e+00
-3.000000e+00
-3.000000e+00
-3.000000e+00
-3.000000e+00
-3.000000e+00
-3.000000e+00
-3.000000e+00
-3.000000e+00
-3.000000e+00
-3.000000e+00
-2.652966e+00
-2.152109e+00
-1.685794e+00
-1.274805e+00
-9.474889e-01
-7.291923e-01
-6.290184e-01
-6.375180e-01
-7.357293e-01
-9.043612e-01
-1.127484e+00
-1.392656e+00
-1.690360e+00
-2.013753e+00
-2.358498e+00
-2.722304e+00
-3.000000e+00
-3.000000e+00
-3.000000e+00
-3.000000e+00
-3.000000e+00
-3.000000e+00
-3.000000e+00
-3.000000e+00
-3.000000e+00
-3.000000e+00
-3.000000e+00
-3.000000e+00
-3.000000e+00
-3.000000e+00
-3.000000e+00
-2.655450e+00
-2.232451e+00
-1.866199e+00
-1.579182e+00
-1.388928e+00
-1.300740e+00
-1.307854e+00
-1.396969e+00
-1.553479e+00
-1.764035e+00
-2.017268e+00
-2.303938e+00
-2.617045e+00
-2.951807e+00
-3.000000e+00
-3.000000e+00
-3.000000e+00
-3.000000e+00
-3.000000e+00
-3.000000e+00
-3.000000e+00
-3.000000e+00
-3.000000e+00
-3.000000e+00
-3.000000e+00
-3.000000e+00
-3.000000e+00
-3.000000e+00
-3.000000e+00
-3.000000e+00
-3.000000e+00
-2.806520e+00
-2.473335e+00
-2.214716e+00
-2.043837e+00
-1.964337e+00
-1.971134e+00
-2.054086e+00
-2.201398e+00
-2.401582e+00
-2.644324e+00
-2.920900e+00
-3.000000e+00
-3.000000e+00
-3.000000e+00
-3.000000e+00
-3.000000e+00
-3.000000e+00
-3.000000e+00
-3.000000e+00
-3.000000e+00
-3.000000e+00
-3.000000e+00
-3.000000e+00
-3.000000e+00
-3.000000e+00
-3.000000e+00
-3.000000e+00
-3.000000e+00
-3.000000e+00
-3.000000e+00
-3.000000e+00
-3.000000e+00
-2.850196e+00
-2.694241e+00
-2.622078e+00
-2.629517e+00
-2.708280e+00
-2.848428e+00
-3.000000e+00
-3.000000e+00
-3.000000e+00
-3.000000e+00
-3.000000e+00
-3.000000e+00
-3.000000e+00
-3.000000e+00
-3.000000e+00
-3.000000e+00
-3.000000e+00
-3.000000e+00
-3.000000e+00
-3.000000e+00
-3.000000e+00
-3.000000e+00
-3.000000e+00
-3.000000e+00
-3.000000e+00
-3.000000e+00
-3.000000e+00
-3.000000e+00
-3.000000e+00
-3.000000e+00
-3.000000e+00
-3.000000e+00
-3.000000e+00
-3.000000e+00
-3.000000e+00
-3.000000e+00
-3.000000e+00
-3.000000e+00
-3.000000e+00
-3.000000e+00
-3.000000e+00
-3.000000e+00
-3.000000e+00
-3.000000e+00
-3.000000e+00
-3.000000e+00
-3.000000e+00
-3.000000e+00
-3.000000e+00
-3.000000e+00
-3.000000e+00
-3.000000e+00
-3.000000e+00
-3.000000e+00
-3.000000e+00
-3.000000e+00
-3.000000e+00
-3.000000e+00
-3.000000e+00
-3.000000e+00
-3.000000e+00
-3.000000e+00
-3.000000e+00
-3.000000e+00
-3.000000e+00
-3.000000e+00
-3.000000e+00
-3.000000e+00
-3.000000e+00
-3.000000e+00
-3.000000e+00
-3.000000e+00
-3.000000e+00
-3.000000e+00
-3.000000e+00
-3.000000e+00
-3.000000e+00
-3.000000e+00
-3.000000e+00
-3.000000e+00
-3.000000e+00
-3.000000e+00
-3.000000e+00
-3.000000e+00
-3.000000e+00
-3.000000e+00
-3.000000e+00
-3.000000e+00
-3.000000e+00
-3.000000e+00
-3.000000e+00
-3.000000e+00
-3.000000e+00
-3.000000e+00
-3.000000e+00
-3.000000e+00
-3.000000e+00
-3.000000e+00
-3.000000e+00
-3.000000e+00
-3.000000e+00
-3.000000e+00
-3.000000e+00
-3.000000e+00
-3.000000e+00
-3.000000e+00
-3.000000e+00
-3.000000e+00
-3.000000e+00
-3.000000e+00
-3.000000e+00
-3.000000e+00
-3.000000e+00
-3.000000e+00
-3.000000e+00
-3.000000e+00
-3.000000e+00
-3.000000e+00
-3.000000e+00
-3.000000e+00
-3.000000e+00
-3.000000e+00
-3.000000e+00
-3.000000e+00
-3.000000e+00
-2.972407e+00
-2.902642e+00
-2.892204e+00
-2.941248e+00
-3.000000e+00
-3.000000e+00
-3.000000e+00
-3.000000e+00
-3.000000e+00
-3.000000e+00
-3.000000e+00
-3.000000e+00
-3.000000e+00
-3.000000e+00
-3.000000e+00
-3.000000e+00
-3.000000e+00
-3.000000e+00
-3.000000e+00
-3.000000e+00
-3.000000e+00
-3.000000e+00
-3.000000e+00
-3.000000e+00
-3.000000e+00
-3.000000e+00
-3.000000e+00
-2.895685e+00
-2.641008e+00
-2.440321e+00
-2.298697e+00
-2.220132e+00
-2.206903e+00
-2.259190e+00
-2.375124e+00
-2.551180e+00
-2.782748e+00
-3.000000e+00
-3.000000e+00
-3.000000e+00
-3.000000e+00
-3.000000e+00
-3.000000e+00
-3.000000e+00
-3.000000e+00
-3.000000e+00
-3.000000e+00
-3.000000e+00
-3.000000e+00
-3.000000e+00
-3.000000e+00
-3.000000e+00
-3.000000e+00
-3.000000e+00
-3.000000e+00
-2.989537e+00
-2.616138e+00
-2.286325e+00
-2.006695e+00
-1.784290e+00
-1.625902e+00
-1.537014e+00
-1.520763e+00
-1.577333e+00
-1.704082e+00
-1.896245e+00
-2.147831e+00
-2.452419e+00
-2.803680e+00
-3.000000e+00
-3.000000e+00
-3.000000e+00
-3.000000e+00
-3.000000e+00
-3.000000e+00
-3.000000e+00
-3.000000e+00
-3.000000e+00
-3.000000e+00
-3.000000e+00
-3.000000e+00
-3.000000e+00
-3.000000e+00
-3.000000e+00
-2.892091e+00
-2.452280e+00
-2.049117e+00
-1.689294e+00
-1.380813e+00
-1.132744e+00
-9.542863e-01
-8.531210e-01
-8.336355e-01
-8.959470e-01
-1.036211e+00
-1.247865e+00
-1.523062e+00
-1.853756e+00
-2.232335e+00
-2.651901e+00
-3.000000e+00
-3.000000e+00
-3.000000e+00
-3.000000e+00
-3.000000e+00
-3.000000e+00
-3.000000e+00
-3.000000e+00
-3.000000e+00
-3.000000e+00
-3.000000e+00
-3.000000e+00
-3.000000e+00
-2.906183e+00
-2.407136e+00
-1.936935e+00
-1.501357e+00
-1.107819e+00
-7.658507e-01
-4.871113e-01
-2.842360e-01
-1.682240e-01
-1.453524e-01
-2.155073e-01
-3.729134e-01
-6.083841e-01
-9.115736e-01
-1.272426e+00
-1.681842e+00
-2.131864e+00
-2.615672e+00
-3.000000e+00
-3.000000e+00
-3.000000e+00
-3.000000e+00
-3.000000e+00
-3.000000e+00
-3.000000e+00
-3.000000e+00
-3.000000e+00
-3.000000e+00
-3.000000e+00
-3.000000e+00
-2.477054e+00
-1.949478e+00
-1.447648e+00
-9.772762e-01
-5.461679e-01
-1.652908e-01
1.505193e-01
3.836825e-01
5.180058e-01
5.442618e-01
4.631623e-01
2.836632e-01
1.882106e-02
-3.176981e-01
-7.134005e-01
-1.157513e+00
-1.640979e+00
-2.156290e+00
-2.697291e+00
-3.000000e+00
-3.000000e+00
-3.000000e+00
-3.000000e+00
-3.000000e+00
-3.000000e+00
-3.000000e+00
-3.000000e+00
-3.000000e+00
-3.000000e+00
-2.652504e+00
-2.078764e+00
-1.523006e+00
-9.891246e-01
-4.822789e-01
-9.989456e-03
4.159001e-01
7.769915e-01
1.048592e+00
1.206059e+00
1.235346e+00
1.138598e+00
9.301548e-01
6.287883e-01
2.524873e-01
-1.833937e-01
-6.662844e-01
-1.186059e+00
-1.734647e+00
-2.305694e+00
-2.894242e+00
-3.000000e+00
-3.000000e+00
-3.000000e+00
-3.000000e+00
-3.000000e+00
-3.000000e+00
-3.000000e+00
-3.000000e+00
-2.919797e+00
-2.311076e+00
-1.714145e+00
-1.131555e+00
-5.664069e-01
-2.272294e-02
4.933467e-01
9.705310e-01
1.387339e+00
1.709058e+00
1.896691e+00
1.927870e+00
1.808124e+00
1.561146e+00
1.214064e+00
7.903020e-01
3.084100e-01
-2.172474e-01
-7.756628e-01
-1.358504e+00
-1.959545e+00
-2.574181e+00
-3.000000e+00
-3.000000e+00
-3.000000e+00
-3.000000e+00
-3.000000e+00
-3.000000e+00
-3.000000e+00
-3.000000e+00
-2.629478e+00
-2.003006e+00
-1.385350e+00
-7.784181e-01
-1.843461e-01
3.944643e-01
9.546012e-01
1.488167e+00
1.973395e+00
2.362580e+00
2.591138e+00
2.621275e+00
2.466690e+00
2.167650e+00
1.763160e+00
1.283103e+00
7.493445e-01
1.777401e-01
-4.203565e-01
-1.036950e+00
-1.666491e+00
-2.305150e+00
-2.950294e+00
-3.000000e+00
-3.000000e+00
-3.000000e+00
-3.000000e+00
-3.000000e+00
-3.000000e+00
-3.000000e+00
-2.369972e+00
-1.728597e+00
-1.093394e+00
-4.656703e-01
1.533217e-01
7.628626e-01
1.363264e+00
1.954031e+00
2.521094e+00
3.000000e+00
3.000000e+00
3.000000e+00
3.000000e+00
2.734162e+00
2.257798e+00
1.712199e+00
1.122044e+00
5.036061e-01
-1.326384e-01
-7.800734e-01
-1.434566e+00
-2.093532e+00
-2.755355e+00
-3.000000e+00
-3.000000e+00
-3.000000e+00
-3.000000e+00
-3.000000e+00
-3.000000e+00
-2.796716e+00
-2.140190e+00
-1.486944e+00
-8.377445e-01
-1.934462e-01
4.452521e-01
1.078637e+00
1.710071e+00
2.349235e+00
3.000000e+00
3.000000e+00
3.000000e+00
3.000000e+00
3.000000e+00