<?xml version="1.0"?>
<VTKFile byte_order="LittleEndian" version="1.0" type="ImageData">
<ImageData Origin="0.0000000000000000e+00 0.0000000000000000e+00 0.0000000000000000e+00" WholeExtent="0 14 0 14 0 14" Spacing="1.4285714626312256e+00 1.4285714626312256e+00 1.4285714626312256e+00">
<Piece Extent="0 14 0 14 0 14">
<PointData Scalars="wall">
<DataArray type="Float64" Name="wall" NumberOfComponents="1" format="ascii"/>-3.000000e+00
-1.136708e-01
-9.537873e-01
-1.796483e+00
-2.640904e+00
-3.000000e+00
-3.000000e+00
-3.000000e+00
-3.000000e+00
-3.000000e+00
-3.000000e+00
-3.000000e+00
-3.000000e+00
-3.000000e+00
-3.000000e+00
1.483836e+00
6.339235e-01
-2.161741e-01
-1.066380e+00
-1.916654e+00
-2.766972e+00
-3.000000e+00
-3.000000e+00
-3.000000e+00
-3.000000e+00
-3.000000e+00
-3.000000e+00
-3.000000e+00
-3.000000e+00
-3.000000e+00
1.941460e+00
1.139719e+00
3.207355e-01
-5.078034e-01
-1.342154e+00
-2.180291e+00
-3.000000e+00
-3.000000e+00
-3.000000e+00
-3.000000e+00
-3.000000e+00
-3.000000e+00
-3.000000e+00
-3.000000e+00
-3.000000e+00
1.954993e+00
1.303100e+00
5.831332e-01
-1.765809e-01
-9.608641e-01
-1.761173e+00
-2.572427e+00
-3.000000e+00
-3.000000e+00
-3.000000e+00
-3.000000e+00
-3.000000e+00
-3.000000e+00
-3.000000e+00
-3.000000e+00
1.519248e+00
1.081004e+00
5.224938e-01
-1.170535e-01
-8.109417e-01
-1.541903e+00
-2.298807e+00
-3.000000e+00
-3.000000e+00
-3.000000e+00
-3.000000e+00
-3.000000e+00
-3.000000e+00
-3.000000e+00
-3.000000e+00
7.708912e-01
5.305314e-01
1.509199e-01
-3.383183e-01
-9.100208e-01
-1.542605e+00
-2.220088e+00
-2.930970e+00
-3.000000e+00
-3.000000e+00
-3.000000e+00
-3.000000e+00
-3.000000e+00
-3.000000e+00
-3.000000e+00
-1.557007e-01
-2.459440e-01
-4.685688e-01
-8.083739e-01
-1.246263e+00
-1.763212e+00
-2.342541e+00
-2.970660e+00
-3.000000e+00
-3.000000e+00
-3.000000e+00
-3.000000e+00
-3.000000e+00
-3.000000e+00
-3.000000e+00
-1.180880e+00
-1.163591e+00
-1.262833e+00
-1.473247e+00
-1.784498e+00
-2.183491e+00
-2.656520e+00
-3.000000e+00
-3.000000e+00
-3.000000e+00
-3.000000e+00
-3.000000e+00
-3.000000e+00
-3.000000e+00
-3.000000e+00
-2.263022e+00
-2.168399e+00
-2.174055e+00
-2.279753e+00
-2.481256e+00
-2.771114e+00
-3.000000e+00
-3.000000e+00
-3.000000e+00
-3.000000e+00
-3.000000e+00
-3.000000e+00
-3.000000e+00
-3.000000e+00
-3.000000e+00
-3.000000e+00
-3.000000e+00
-3.000000e+00
-3.000000e+00
-3.000000e+00
-3.000000e+00
-3.000000e+00
-3.000000e+00
-3.000000e+00
-3.000000e+00
-3.000000e+00
-3.000000e+00
-3.000000e+00
-3.000000e+00
-3.000000e+00
-3.000000e+00
-3.000000e+00
-3.000000e+00
-3.000000e+00
-3.000000e+00
-3.000000e+00
-3.000000e+00
-3.000000e+00
-3.000000e+00
-3.000000e+00
-3.000000e+00
-3.000000e+00
-3.000000e+00
-3.000000e+00
-3.000000e+00
-3.000000e+00
-3.000000e+00
-3.000000e+00
-3.000000e+00
-3.000000e+00
-3.000000e+00
-3.000000e+00
-3.000000e+00
-3.000000e+00
-3.000000e+00
-3.000000e+00
-3.000000e+00
-3.000000e+00
-3.000000e+00
-3.000000e+00
-3.000000e+00
-3.000000e+00
-3.000000e+00
-3.000000e+00
-3.000000e+00
-3.000000e+00
-3.000000e+00
-3.000000e+00
-3.000000e+00
-3.000000e+00
-3.000000e+00
-3.000000e+00
-3.000000e+00
-3.000000e+00
-3.000000e+00
-3.000000e+00
-3.000000e+00
-3.000000e+00
-3.000000e+00
-3.000000e+00
-3.000000e+00
-3.000000e+00
-3.000000e+00
-3.000000e+00
-3.000000e+00
-3.000000e+00
-3.000000e+00
-3.000000e+00
-3.000000e+00
-3.000000e+00
-3.000000e+00
-3.000000e+00
-3.000000e+00
-3.000000e+00
-3.000000e+00
-3.000000e+00
-3.000000e+00
-3.000000e+00
-3.000000e+00
-3.000000e+00
-3.000000e+00
-3.000000e+00
-3.000000e+00
-3.000000e+00
-3.000000e+00
1.164722e+00
3.904595e-01
-4.067554e-01
-1.218101e+00
-2.038693e+00
-2.865638e+00
-3.000000e+00
-3.000000e+00
-3.000000e+00
-3.000000e+00
-3.000000e+00
-3.000000e+00
-3.000000e+00
-3.000000e+00
-3.000000e+00
2.161468e+00
1.333440e+00
4.970350e-01
-3.438158e-01
-1.187300e+00
-2.032469e+00
-2.878783e+00
-3.000000e+00
-3.000000e+00
-3.000000e+00
-3.000000e+00
-3.000000e+00
-3.000000e+00
-3.000000e+00
-3.000000e+00
2.918817e+00
2.073294e+00
1.225541e+00
3.767862e-01
-4.725046e-01
-1.322117e+00
-2.171934e+00
-3.000000e+00
-3.000000e+00
-3.000000e+00
-3.000000e+00
-3.000000e+00
-3.000000e+00
-3.000000e+00
-3.000000e+00
3.000000e+00
2.428285e+00
1.661956e+00
8.626099e-01
4.620361e-02
-7.800379e-01
-1.612428e+00
-2.448908e+00
-3.000000e+00
-3.000000e+00
-3.000000e+00
-3.000000e+00
-3.000000e+00
-3.000000e+00
-3.000000e+00
2.621365e+00
2.245370e+00
1.688702e+00
1.026582e+00
3.034010e-01
-4.566174e-01
-1.240028e+00
-2.039023e+00
-2.848847e+00
-3.000000e+00
-3.000000e+00
-3.000000e+00
-3.000000e+00
-3.000000e+00
-3.000000e+00
1.727320e+00
1.610545e+00
1.296891e+00
8.305564e-01
2.563572e-01
-3.913512e-01
-1.089158e+00
-1.821703e+00
-2.578924e+00
-3.000000e+00
-3.000000e+00
-3.000000e+00
-3.000000e+00
-3.000000e+00
-3.000000e+00
6.769080e-01
7.203994e-01
5.968776e-01
3.195481e-01
-8.649254e-02
-5.932837e-01
-1.176073e+00
-1.815392e+00
-2.496793e+00
-3.000000e+00
-3.000000e+00
-3.000000e+00
-3.000000e+00
-3.000000e+00
-3.000000e+00
-4.400334e-01
-2.978973e-01
-2.903795e-01
-4.180393e-01
-6.717563e-01
-1.035655e+00
-1.491231e+00
-2.020660e+00
-2.608541e+00
-3.000000e+00
-3.000000e+00
-3.000000e+00
-3.000000e+00
-3.000000e+00
-3.000000e+00
-1.589762e+00
-1.383307e+00
-1.286088e+00
-1.303161e+00
-1.433615e+00
-1.670802e+00
-2.003888e+00
-2.419969e+00
-2.905951e+00
-3.000000e+00
-3.000000e+00
-3.000000e+00
-3.000000e+00
-3.000000e+00
-3.000000e+00
-2.757714e+00
-2.506774e+00
-2.346281e+00
-2.282216e+00
-2.317111e+00
-2.449579e+00
-2.674567e+00
-2.984256e+00
-3.000000e+00
-3.000000e+00
-3.000000e+00
-3.000000e+00
-3.000000e+00
-3.000000e+00
-3.000000e+00
-3.000000e+00
-3.000000e+00
-3.000000e+00
-3.000000e+00
-3.000000e+00
-3.000000e+00
-3.000000e+00
-3.000000e+00
-3.000000e+00
-3.000000e+00
-3.000000e+00
-3.000000e+00
-3.000000e+00
-3.000000e+00
-3.000000e+00
-3.000000e+00
-3.000000e+00
-3.000000e+00
-3.000000e+00
-3.000000e+00
-3.000000e+00
-3.000000e+00
-3.000000e+00
-3.000000e+00
-3.000000e+00
-3.000000e+00
-3.000000e+00
-3.000000e+00
-3.000000e+00
-3.000000e+00
-3.000000e+00
-3.000000e+00
-3.000000e+00
-3.000000e+00
-3.000000e+00
-3.000000e+00
-3.000000e+00
-3.000000e+00
-3.000000e+00
-3.000000e+00
-3.000000e+00
-3.000000e+00
-3.000000e+00
-3.000000e+00
-3.000000e+00
-3.000000e+00
-3.000000e+00
-3.000000e+00
-3.000000e+00
-3.000000e+00
-3.000000e+00
-3.000000e+00
-3.000000e+00
-3.000000e+00
-3.000000e+00
-3.000000e+00
-3.000000e+00
-3.000000e+00
-3.000000e+00
-3.000000e+00
-3.000000e+00
-3.000000e+00
-3.000000e+00
-3.000000e+00
-3.000000e+00
-3.000000e+00
-3.000000e+00
-3.000000e+00
-3.000000e+00
-3.000000e+00
-3.000000e+00
-3.000000e+00
-3.000000e+00
-3.000000e+00
-3.000000e+00
1.277269e+00
6.314297e-01
-7.510900e-02
-8.202825e-01
-1.591001e+00
-2.379263e+00
-3.000000e+00
-3.000000e+00
-3.000000e+00
-3.000000e+00
-3.000000e+00
-3.000000e+00
-3.000000e+00
-3.000000e+00
-3.000000e+00
2.452563e+00
1.749921e+00
9.896107e-01
1.989503e-01
-6.092405e-01
-1.428351e+00
-2.254686e+00
-3.000000e+00
-3.000000e+00
-3.000000e+00
-3.000000e+00
-3.000000e+00
-3.000000e+00
-3.000000e+00
-3.000000e+00
3.000000e+00
2.771152e+00
1.944534e+00
1.107620e+00
2.658677e-01
-5.785336e-01
-1.424539e+00
-2.271588e+00
-3.000000e+00
-3.000000e+00
-3.000000e+00
-3.000000e+00
-3.000000e+00
-3.000000e+00
-3.000000e+00
3.000000e+00
3.000000e+00
2.651665e+00
1.809809e+00
9.643340e-01
1.171193e-01
-7.310624e-01
-1.579838e+00
-2.429005e+00
-3.000000e+00
-3.000000e+00
-3.000000e+00
-3.000000e+00
-3.000000e+00
-3.000000e+00
3.000000e+00
3.000000e+00
2.850665e+00
2.148654e+00
1.382355e+00
5.851207e-01
-2.289214e-01
-1.052991e+00
-1.883490e+00
-2.718342e+00
-3.000000e+00
-3.000000e+00
-3.000000e+00
-3.000000e+00
-3.000000e+00
2.495240e+00
2.604385e+00
2.421093e+00
1.998469e+00
1.420299e+00
7.495923e-01
2.362490e-02
-7.366619e-01
-1.519273e+00
-2.317048e+00
-3.000000e+00
-3.000000e+00
-3.000000e+00
-3.000000e+00
-3.000000e+00
1.320963e+00
1.557856e+00
1.592943e+00
1.420285e+00
1.067148e+00
5.765481e-01
-1.130295e-02
-6.662188e-01
-1.367539e+00
-2.101529e+00
-2.859039e+00
-3.000000e+00
-3.000000e+00
-3.000000e+00
-3.000000e+00
1.293783e-01
4.301105e-01
5.850854e-01
5.789499e-01
4.123492e-01
1.016293e-01
-3.280549e-01
-8.505502e-01
-1.443318e+00
-2.088752e+00
-2.773744e+00
-3.000000e+00
-3.000000e+00
-3.000000e+00
-3.000000e+00
-1.069330e+00
-7.311077e-01
-5.046406e-01
-4.039960e-01
-4.361677e-01
-5.988669e-01
-8.812695e-01
-1.267216e+00
-1.738940e+00
-2.279783e+00
-2.875520e+00
-3.000000e+00
-3.000000e+00
-3.000000e+00
-3.000000e+00
-2.271638e+00
-1.908939e+00
-1.636023e+00
-1.464272e+00
-1.401832e+00
-1.451879e+00
-1.611857e+00
-1.874097e+00
-2.227476e+00
-2.659390e+00
-3.000000e+00
-3.000000e+00
-3.000000e+00
-3.000000e+00
-3.000000e+00
-3.000000e+00
-3.000000e+00
-2.790938e+00
-2.569452e+00
-2.439163e+00
-2.404884e+00
-2.467940e+00
-2.625915e+00
-2.873098e+00
-3.000000e+00
-3.000000e+00
-3.000000e+00
-3.000000e+00
-3.000000e+00
-3.000000e+00
-3.000000e+00
-3.000000e+00
-3.000000e+00
-3.000000e+00
-3.000000e+00
-3.000000e+00
-3.000000e+00
-3.000000e+00
-3.000000e+00
-3.000000e+00
-3.000000e+00
-3.000000e+00
-3.000000e+00
-3.000000e+00
-3.000000e+00
-3.000000e+00
-3.000000e+00
-3.000000e+00
-3.000000e+00
-3.000000e+00
-3.000000e+00
-3.000000e+00
-3.000000e+00
-3.000000e+00
-3.000000e+00
-3.000000e+00
-3.000000e+00
-3.000000e+00
-3.000000e+00
-3.000000e+00
-3.000000e+00
-3.000000e+00
-3.000000e+00
-3.000000e+00
-3.000000e+00
-3.000000e+00
-3.000000e+00
-3.000000e+00
-3.000000e+00
-3.000000e+00
-3.000000e+00
-3.000000e+00
-3.000000e+00
-3.000000e+00
-3.000000e+00
-3.000000e+00
-3.000000e+00
-3.000000e+00
-3.000000e+00
-3.000000e+00
-3.000000e+00
-3.000000e+00
-3.000000e+00
-3.000000e+00
-3.000000e+00
-3.000000e+00
-3.000000e+00
-3.000000e+00
-3.000000e+00
-3.000000e+00
1.031826e+00
5.661225e-01
-1.877308e-03
-6.413579e-01
-1.330695e+00
-2.055290e+00
-2.805330e+00
-3.000000e+00
-3.000000e+00
-3.000000e+00
-3.000000e+00
-3.000000e+00
-3.000000e+00
-3.000000e+00
-3.000000e+00
2.232343e+00
1.771893e+00
1.175334e+00
4.964337e-01
-2.328563e-01
-9.941721e-01
-1.776729e+00
-2.573945e+00
-3.000000e+00
-3.000000e+00
-3.000000e+00
-3.000000e+00
-3.000000e+00
-3.000000e+00
-3.000000e+00
3.000000e+00
2.973122e+00
2.323524e+00
1.584527e+00
8.030934e-01
-9.236336e-04
-8.181677e-01
-1.643761e+00
-2.474938e+00
-3.000000e+00
-3.000000e+00
-3.000000e+00
-3.000000e+00
-3.000000e+00
-3.000000e+00
3.000000e+00
3.000000e+00
3.000000e+00
2.555627e+00
1.718016e+00
8.751340e-01
2.966166e-02
-8.172708e-01
-1.665107e+00
-2.513542e+00
-3.000000e+00
-3.000000e+00
-3.000000e+00
-3.000000e+00
-3.000000e+00
3.000000e+00
3.000000e+00
3.000000e+00
3.000000e+00
2.381799e+00
1.543705e+00
7.007437e-01
-1.446939e-01
-9.915600e-01
-1.839323e+00
-2.687686e+00
-3.000000e+00
-3.000000e+00
-3.000000e+00
-3.000000e+00
2.860953e+00
3.000000e+00
3.000000e+00
3.000000e+00
2.578289e+00
1.868934e+00
1.102680e+00
3.073182e-01
-5.045500e-01
-1.326572e+00
-2.155250e+00
-2.988512e+00
-3.000000e+00
-3.000000e+00
-3.000000e+00
1.665361e+00
2.150432e+00
2.437402e+00
2.458266e+00
2.207053e+00
1.746182e+00
1.150227e+00
4.722180e-01
-2.561884e-01
-1.016715e+00
-1.798590e+00
-2.595225e+00
-3.000000e+00
-3.000000e+00
-3.000000e+00
4.623504e-01
9.455719e-01
1.294174e+00
1.468068e+00
1.441548e+00
1.218829e+00
8.312392e-01
3.195601e-01
-2.802572e-01
-9.415779e-01
-1.646068e+00
-2.381378e+00
-3.000000e+00
-3.000000e+00
-3.000000e+00
-7.434201e-01
-2.614536e-01
1.188579e-01
3.723841e-01
4.777484e-01
4.247046e-01
2.185216e-01
-1.223412e-01
-5.732279e-01
-1.109828e+00
-1.711613e+00
-2.362620e+00
-3.000000e+00
-3.000000e+00
-3.000000e+00
-1.950513e+00
-1.469432e+00
-1.069933e+00
-7.689924e-01
-5.825706e-01
-5.222783e-01
-5.921969e-01
-7.876077e-01
-1.096457e+00
-1.502600e+00
-1.989095e+00
-2.540409e+00
-3.000000e+00
-3.000000e+00
-3.000000e+00
-3.000000e+00
-2.677914e+00
-2.265589e+00
-1.933532e+00
-1.693698e+00
-1.556214e+00
-1.527553e+00
-1.609128e+00
-1.796974e+00
-2.082638e+00
-2.454885e+00
-2.901488e+00
-3.000000e+00
-3.000000e+00
-3.000000e+00
-3.000000e+00
-3.000000e+00
-3.000000e+00
-3.000000e+00
-2.834044e+00
-2.641891e+00
-2.541313e+00
-2.535975e+00
-2.626079e+00
-2.808321e+00
-3.000000e+00
-3.000000e+00
-3.000000e+00
-3.000000e+00
-3.000000e+00
-3.000000e+00
-3.000000e+00
-3.000000e+00
-3.000000e+00
-3.000000e+00
-3.000000e+00
-3.000000e+00
-3.000000e+00
-3.000000e+00
-3.000000e+00
-3.000000e+00
-3.000000e+00
-3.000000e+00
-3.000000e+00
-3.000000e+00
-3.000000e+00
-3.000000e+00
-3.000000e+00
-3.000000e+00
-3.000000e+00
-3.000000e+00
-3.000000e+00
-3.000000e+00
-3.000000e+00
-3.000000e+00
-3.000000e+00
-3.000000e+00
-3.000000e+00
-3.000000e+00
-3.000000e+00
-3.000000e+00
-3.000000e+00
-3.000000e+00
-3.000000e+00
-3.000000e+00
-3.000000e+00
-3.000000e+00
-3.000000e+00
-3.000000e+00
-3.000000e+00
-3.000000e+00
-3.000000e+00
-3.000000e+00
-3.000000e+00
-3.000000e+00
4.864202e-01
2.070417e-01
-1.979933e-01
-7.019696e-01
-1.281116e+00
-1.916576e+00
-2.594225e+00
-3.000000e+00
-3.000000e+00
-3.000000e+00
-3.000000e+00
-3.000000e+00
-3.000000e+00
-3.000000e+00
-3.000000e+00
1.598718e+00
1.392140e+00
1.011111e+00
4.997272e-01
-1.029706e-01
-7.684317e-01
-1.477341e+00
-2.216905e+00
-2.978605e+00
-3.000000e+00
-3.000000e+00
-3.000000e+00
-3.000000e+00
-3.000000e+00
-3.000000e+00
2.614379e+00
2.553161e+00
2.219803e+00
1.695669e+00
1.056099e+00
3.484683e-01
-4.005342e-01
-1.175876e+00
-1.968770e+00
-2.773847e+00
-3.000000e+00
-3.000000e+00
-3.000000e+00
-3.000000e+00
-3.000000e+00
3.000000e+00
3.000000e+00
3.000000e+00
2.876110e+00
2.172535e+00
1.404887e+00
6.066232e-01
-2.081971e-01
-1.032871e+00
-1.863844e+00
-2.699080e+00
-3.000000e+00
-3.000000e+00
-3.000000e+00
-3.000000e+00
3.000000e+00
3.000000e+00
3.000000e+00
3.000000e+00
3.000000e+00
2.328092e+00
1.483765e+00
6.370468e-01
-2.108984e-01
-1.059553e+00
-1.908659e+00
-2.758065e+00
-3.000000e+00
-3.000000e+00
-3.000000e+00
2.630287e+00
3.000000e+00
3.000000e+00
3.000000e+00
3.000000e+00
2.931305e+00
2.109981e+00
1.275546e+00
4.351835e-01
-4.083428e-01
-1.253754e+00
-2.100376e+00
-2.947823e+00
-3.000000e+00
-3.000000e+00
1.617303e+00
2.329786e+00
2.935032e+00
3.000000e+00
3.000000e+00
2.915278e+00
2.304324e+00
1.589149e+00
8.229442e-01
2.925444e-02
-7.806120e-01
-1.600702e+00
-2.427632e+00
-3.000000e+00
-3.000000e+00
5.060158e-01
1.161877e+00
1.726908e+00
2.146632e+00
2.351051e+00
2.290980e+00
1.982172e+00
1.489670e+00
8.788118e-01
1.945229e-01
-5.360327e-01
-1.296773e+00
-2.077972e+00
-2.873540e+00
-3.000000e+00
-6.458220e-01
-2.578449e-02
5.179982e-01
9.546561e-01
1.246613e+00
1.358892e+00
1.275210e+00
1.007872e+00
5.901523e-01
6.005430e-02
-5.503159e-01
-1.217362e+00
-1.924726e+00
-2.661245e+00
-3.000000e+00
-1.817688e+00
-1.221894e+00
-6.911936e-01
-2.453842e-01
9.234715e-02
2.986488e-01
3.559732e-01
2.589130e-01
1.647997e-02
-3.516049e-01
-8.215551e-01
-1.370871e+00
-1.980839e+00
-2.636940e+00
-3.000000e+00
-3.000000e+00
-2.422370e+00
-1.900522e+00
-1.448989e+00
-1.083450e+00
-8.201284e-01
-6.732769e-01
-6.519809e-01
-7.576337e-01
-9.835138e-01
-1.316737e+00
-1.741405e+00
-2.241447e+00
-2.802384e+00
-3.000000e+00
-3.000000e+00
-3.000000e+00
-3.000000e+00
-2.654478e+00
-2.270338e+00
-1.969307e+00
-1.762494e+00
-1.658680e+00
-1.662685e+00
-1.774317e+00
-1.988419e+00
-2.295976e+00
-2.685777e+00
-3.000000e+00
-3.000000e+00
-3.000000e+00
-3.000000e+00
-3.000000e+00
-3.000000e+00
-3.000000e+00
-3.000000e+00
-2.886871e+00
-2.723817e+00
-2.652358e+00
-2.675054e+00
-2.791083e+00
-2.996383e+00
-3.000000e+00
-3.000000e+00
-3.000000e+00
-3.000000e+00
-3.000000e+00
-3.000000e+00
-3.000000e+00
-3.000000e+00
-3.000000e+00
-3.000000e+00
-3.000000e+00
-3.000000e+00
-3.000000e+00
-3.000000e+00
-3.000000e+00
-3.000000e+00
-3.000000e+00
-3.000000e+00
-3.000000e+00
-3.000000e+00
-3.000000e+00
-3.000000e+00
-3.000000e+00
-3.000000e+00
-3.000000e+00
-3.000000e+00
-3.000000e+00
-3.000000e+00
-3.000000e+00
-3.000000e+00
-3.000000e+00
-3.000000e+00
-3.000000e+00
-2.665663e-01
-3.873868e-01
-6.354065e-01
-9.948573e-01
-1.447128e+00
-1.974184e+00
-2.560401e+00
-3.000000e+00
-3.000000e+00
-3.000000e+00
-3.000000e+00
-3.000000e+00
-3.000000e+00
-3.000000e+00
-3.000000e+00
7.319984e-01
7.161980e-01
5.353928e-01
2.082243e-01
-2.379537e-01
-7.756238e-01
-1.381704e+00
-2.038544e+00
-2.733221e+00
-3.000000e+00
-3.000000e+00
-3.000000e+00
-3.000000e+00
-3.000000e+00
-3.000000e+00
1.591026e+00
1.743602e+00
1.678287e+00
1.406941e+00
9.709797e-01
4.171438e-01
-2.171621e-01
-9.060674e-01
-1.632581e+00
-2.385611e+00
-3.000000e+00
-3.000000e+00
-3.000000e+00
-3.000000e+00
-3.000000e+00
2.179976e+00
2.595120e+00
2.750335e+00
2.594760e+00
2.179361e+00
1.598020e+00
9.210815e-01
1.887307e-01
-5.772491e-01
-1.364724e+00
-2.166615e+00
-2.978576e+00
-3.000000e+00
-3.000000e+00
-3.000000e+00
2.314832e+00
3.000000e+00
3.000000e+00
3.000000e+00
3.000000e+00
2.748217e+00
2.002914e+00
1.213028e+00
4.014740e-01
-4.220243e-01
-1.252752e+00
-2.088166e+00
-2.926786e+00
-3.000000e+00
-3.000000e+00
1.935058e+00
2.781765e+00
3.000000e+00
3.000000e+00
3.000000e+00
3.000000e+00
2.937567e+00
2.091365e+00
1.243229e+00
3.942280e-01
-4.552341e-01
-1.304972e+00
-2.154886e+00
-3.000000e+00
-3.000000e+00
1.191618e+00
2.020342e+00
2.832146e+00
3.000000e+00
3.000000e+00
3.000000e+00
3.000000e+00
2.653659e+00
1.836714e+00
1.005744e+00
1.679797e-01
-6.735706e-01
-1.517440e+00
-2.362831e+00
-3.000000e+00
2.523875e-01
1.029822e+00
1.770227e+00
2.441251e+00
2.972786e+00
3.000000e+00
3.000000e+00
2.659780e+00
2.029211e+00
1.309311e+00
5.431609e-01
-2.490273e-01
-1.057046e+00
-1.875315e+00
-2.700569e+00
-7.880960e-01
-5.691862e-02
6.308537e-01
1.251255e+00
1.765284e+00
2.115504e+00
2.238860e+00
2.106196e+00
1.748700e+00
1.229796e+00
6.063037e-01
-8.343792e-02
-8.159046e-01
-1.576837e+00
-2.357409e+00
-1.884071e+00
-1.189401e+00
-5.383749e-01
5.175257e-02
5.566530e-01
9.443669e-01
1.179054e+00
1.232013e+00
1.095840e+00
7.888417e-01
3.446941e-01
-2.015901e-01
-8.213258e-01
-1.493518e+00
-2.203496e+00
-3.000000e+00
-2.346504e+00
-1.721898e+00
-1.151695e+00
-6.523829e-01
-2.442493e-01
5.009937e-02
2.096438e-01
2.208633e-01
8.274221e-02
-1.928158e-01
-5.855074e-01
-1.072651e+00
-1.633469e+00
-2.250889e+00
-3.000000e+00
-3.000000e+00
-2.913305e+00
-2.357155e+00
-1.861611e+00
-1.440677e+00
-1.109793e+00
-8.841701e-01
-7.761564e-01
-7.923360e-01
-9.316912e-01
-1.185904e+00
-1.541598e+00
-1.983282e+00
-2.495771e+00
-3.000000e+00
-3.000000e+00
-3.000000e+00
-3.000000e+00
-3.000000e+00
-2.641246e+00
-2.285862e+00
-2.016093e+00
-1.842075e+00
-1.771193e+00
-1.806670e+00
-1.946877e+00
-2.185686e+00
-2.513700e+00
-2.919845e+00
-3.000000e+00
-3.000000e+00
-3.000000e+00
-3.000000e+00
-3.000000e+00
-3.000000e+00
-3.000000e+00
-3.000000e+00
-2.949222e+00
-2.814926e+00
-2.771916e+00
-2.821695e+00
-2.962524e+00
-3.000000e+00
-3.000000e+00
-3.000000e+00
-3.000000e+00
-3.000000e+00
-3.000000e+00
-3.000000e+00
-3.000000e+00
-3.000000e+00
-3.000000e+00
-3.000000e+00
-3.000000e+00
-3.000000e+00
-3.000000e+00
-3.000000e+00
-3.000000e+00
-3.000000e+00
-1.151370e+00
-1.149289e+00
-1.263769e+00
-1.488643e+00
-1.812988e+00
-2.223419e+00
-2.706191e+00
-3.000000e+00
-3.000000e+00
-3.000000e+00
-3.000000e+00
-3.000000e+00
-3.000000e+00
-3.000000e+00
-3.000000e+00
-2.536912e-01
-1.403856e-01
-1.664805e-01
-3.299241e-01
-6.187468e-01
-1.014913e+00
-1.498821e+00
-2.052433e+00
-2.660652e+00
-3.000000e+00
-3.000000e+00
-3.000000e+00
-3.000000e+00
-3.000000e+00
-3.000000e+00
4.956312e-01
7.621298e-01
8.676429e-01
8.000178e-01
5.671721e-01
1.930556e-01
-2.924576e-01
-8.617525e-01
-1.492828e+00
-2.169387e+00
-2.879725e+00
-3.000000e+00
-3.000000e+00
-3.000000e+00
-3.000000e+00
1.012071e+00
1.475562e+00
1.777207e+00
1.869862e+00
1.735682e+00
1.399942e+00
9.120049e-01
3.192277e-01
-3.436122e-01
-1.053543e+00
-1.795824e+00
-2.560934e+00
-3.000000e+00
-3.000000e+00
-3.000000e+00
1.199477e+00
1.867915e+00
2.426563e+00
2.790511e+00
2.858099e+00
2.604112e+00
2.112188e+00
1.480728e+00
7.717929e-01
1.835108e-02
-7.621665e-01
-1.560102e+00
-2.369801e+00
-3.000000e+00
-3.000000e+00
1.011201e+00
1.818114e+00
2.594815e+00
3.000000e+00
3.000000e+00
3.000000e+00
3.000000e+00
2.594365e+00
1.817638e+00
1.010712e+00
1.887589e-01
-6.416588e-01
-1.477286e+00
-2.316335e+00
-3.000000e+00
4.940896e-01
1.344183e+00
2.194040e+00
3.000000e+00
3.000000e+00
3.000000e+00
3.000000e+00
3.000000e+00
2.697114e+00
1.847514e+00
9.975400e-01
1.473870e-01
-7.028637e-01
-1.553174e+00
-2.403524e+00
-2.556720e-01
5.805259e-01
1.410007e+00
2.226736e+00
3.000000e+00
3.000000e+00
3.000000e+00
3.000000e+00
3.000000e+00
2.375486e+00
1.562343e+00
7.346110e-01
-1.006122e-01
-9.401655e-01
-1.782444e+00
-1.153625e+00
-3.502035e-01
4.361343e-01
1.194780e+00
1.905299e+00
2.525876e+00
2.972183e+00
3.000000e+00
2.894421e+00
2.399205e+00
1.753242e+00
1.029434e+00
2.633367e-01
-5.274949e-01
-1.333804e+00
-2.144109e+00
-1.375244e+00
-6.299043e-01
8.120441e-02
7.409010e-01
1.321422e+00
1.779662e+00
2.057915e+00
2.103832e+00
1.907048e+00
1.508359e+00
9.672093e-01
3.328938e-01
-3.616223e-01
-1.095798e+00
-3.000000e+00
-2.455800e+00
-1.744550e+00
-1.069231e+00
-4.432373e-01
1.144361e-01
5.778656e-01
9.148502e-01
1.092537e+00
1.089153e+00
9.051471e-01
5.629334e-01
9.551859e-02
-4.650655e-01
-1.093160e+00
-3.000000e+00
-3.000000e+00
-2.887219e+00
-2.238974e+00
-1.636558e+00
-1.093578e+00
-6.272664e-01
-2.580605e-01
-7.485390e-03
1.062016e-01
7.351542e-02
-1.027322e-01
-4.085259e-01
-8.234916e-01
-1.326184e+00
-3.000000e+00
-3.000000e+00
-3.000000e+00
-3.000000e+00
-2.834867e+00
-2.302111e+00
-1.833971e+00
-1.444541e+00
-1.148798e+00
-9.607015e-01
-8.905721e-01
-9.425893e-01
-1.113635e+00
-1.394163e+00
-1.770581e+00
-3.000000e+00
-3.000000e+00
-3.000000e+00
-3.000000e+00
-3.000000e+00
-3.000000e+00
-3.000000e+00
-2.638269e+00
-2.312089e+00
-2.073668e+00
-1.932068e+00
-1.893256e+00
-1.958954e+00
-2.126270e+00
-2.388307e+00
-3.000000e+00
-3.000000e+00
-3.000000e+00
-3.000000e+00
-3.000000e+00
-3.000000e+00
-3.000000e+00
-3.000000e+00
-3.000000e+00
-3.000000e+00
-3.000000e+00
-2.914910e+00
-2.899603e+00
-2.975483e+00
-3.000000e+00
-2.119009e+00
-2.024376e+00
-2.032077e+00
-2.141778e+00
-2.348911e+00
-2.645562e+00
-3.000000e+00
-3.000000e+00
-3.000000e+00
-3.000000e+00
-3.000000e+00
-3.000000e+00
-3.000000e+00
-3.000000e+00
-3.000000e+00
-1.302780e+00
-1.102006e+00
-1.015864e+00
-1.049246e+00
-1.200224e+00
-1.460559e+00
-1.817735e+00
-2.257467e+00
-2.765745e+00
-3.000000e+00
-3.000000e+00
-3.000000e+00
-3.000000e+00
-3.000000e+00
-3.000000e+00
-6.299095e-01
-2.965345e-01
-8.500576e-02
-1.078367e-02
-7.988596e-02
-2.866979e-01
-6.160259e-01
-1.047889e+00
-1.562075e+00
-2.140819e+00
-2.769712e+00
-3.000000e+00
-3.000000e+00
-3.000000e+00
-3.000000e+00
-1.568336e-01
3.311453e-01
7.046409e-01
9.319949e-01
9.882860e-01
8.665175e-01
5.813861e-01
1.616893e-01
-3.610640e-01
-9.598136e-01
-1.613955e+00
-2.308630e+00
-3.000000e+00
-3.000000e+00
-3.000000e+00
5.873203e-02
7.024083e-01
1.262475e+00
1.696132e+00
1.948997e+00
1.975376e+00
1.769721e+00
1.371266e+00
8.349857e-01
2.069192e-01
-4.814720e-01
-1.210161e+00
-1.966512e+00
-2.742424e+00
-3.000000e+00
-1.652050e-02
7.495246e-01
1.476616e+00
2.134939e+00
2.665573e+00
2.965997e+00
2.933259e+00
2.580845e+00
2.020093e+00
1.345685e+00
6.096897e-01
-1.616158e-01
-9.545255e-01
-1.761441e+00
-2.577893e+00
-3.703809e-01
4.623857e-01
1.287112e+00
2.096939e+00
2.874762e+00
3.000000e+00
3.000000e+00
3.000000e+00
3.000000e+00
2.419193e+00
1.619280e+00
7.994504e-01
-3.056669e-02
-8.664484e-01
-1.706003e+00
-9.533730e-01
-1.028919e-01
7.475901e-01
1.598073e+00
2.448553e+00
3.000000e+00
3.000000e+00
3.000000e+00
3.000000e+00
3.000000e+00
2.448554e+00
1.598072e+00
7.475891e-01
-1.028919e-01
-9.533739e-01
-1.706004e+00
-8.664494e-01
-3.056622e-02
7.994504e-01
1.619278e+00
2.419192e+00
3.000000e+00
3.000000e+00
3.000000e+00
3.000000e+00
2.874762e+00
2.096939e+00
1.287112e+00
4.623866e-01
-3.703809e-01
-2.577892e+00
-1.761441e+00
-9.545250e-01
-1.616168e-01
6.096888e-01
1.345685e+00
2.020092e+00
2.580844e+00
2.933258e+00
2.965997e+00
2.665573e+00
2.134939e+00
1.476615e+00
7.495246e-01
-1.652145e-02
-3.000000e+00
-2.742424e+00
-1.966512e+00
-1.210161e+00
-4.814720e-01
2.069197e-01
8.349862e-01
1.371266e+00
1.769721e+00
1.975377e+00
1.948997e+00
1.696132e+00
1.262474e+00
7.024083e-01
5.873203e-02
-3.000000e+00
-3.000000e+00
-3.000000e+00
-2.308631e+00
-1.613956e+00
-9.598150e-01
-3.610640e-01
1.616883e-01
5.813861e-01
8.665161e-01
9.882846e-01
9.319949e-01
7.046394e-01
3.311453e-01
-1.568336e-01
-3.000000e+00
-3.000000e+00
-3.000000e+00
-3.000000e+00
-2.769714e+00
-2.140821e+00
-1.562076e+00
-1.047891e+00
-6.160274e-01
-2.866993e-01
-7.988691e-02
-1.078415e-02
-8.500719e-02
-2.965345e-01
-6.299114e-01
-3.000000e+00
-3.000000e+00
-3.000000e+00
-3.000000e+00
-3.000000e+00
-3.000000e+00
-2.765744e+00
-2.257467e+00
-1.817734e+00
-1.460559e+00
-1.200224e+00
-1.049246e+00
-1.015864e+00
-1.102007e+00
-1.302779e+00
-3.000000e+00
-3.000000e+00
-3.000000e+00
-3.000000e+00
-3.000000e+00
-3.000000e+00
-3.000000e+00
-3.000000e+00
-3.000000e+00
-2.645564e+00
-2.348911e+00
-2.141778e+00
-2.032078e+00
-2.024378e+00
-2.119009e+00
-3.000000e+00
-2.975483e+00
-2.899603e+00
-2.914908e+00
-3.000000e+00
-3.000000e+00
-3.000000e+00
-3.000000e+00
-3.000000e+00
-3.000000e+00
-3.000000e+00
-3.000000e+00
-3.000000e+00
-3.000000e+00
-3.000000e+00
-2.388307e+00
-2.126272e+00
-1.958954e+00
-1.893256e+00
-1.932069e+00
-2.073670e+00
-2.312090e+00
-2.638269e+00
-3.000000e+00
-3.000000e+00
-3.000000e+00
-3.000000e+00
-3.000000e+00
-3.000000e+00
-3.000000e+00
-1.770580e+00
-1.394164e+00
-1.113634e+00
-9.425883e-01
-8.905721e-01
-9.607005e-01
-1.148798e+00
-1.444541e+00
-1.833970e+00
-2.302109e+00
-2.834865e+00
-3.000000e+00
-3.000000e+00
-3.000000e+00
-3.000000e+00
-1.326185e+00
-8.234925e-01
-4.085255e-01
-1.027322e-01
7.351542e-02
1.062026e-01
-7.485390e-03
-2.580595e-01
-6.272669e-01
-1.093577e+00
-1.636557e+00
-2.238974e+00
-2.887218e+00
-3.000000e+00
-3.000000e+00
-1.093160e+00
-4.650669e-01
9.551907e-02
5.629330e-01
9.051466e-01
1.089152e+00
1.092536e+00
9.148498e-01
5.778651e-01
1.144371e-01
-4.432373e-01
-1.069231e+00
-1.744549e+00
-2.455800e+00
-3.000000e+00
-1.095799e+00
-3.616233e-01
3.328934e-01
9.672093e-01
1.508358e+00
1.907047e+00
2.103832e+00
2.057915e+00
1.779662e+00
1.321423e+00
7.409010e-01
8.120394e-02
-6.299047e-01
-1.375243e+00
-2.144108e+00
-1.333803e+00
-5.274959e-01
2.633367e-01
1.029434e+00
1.753240e+00
2.399204e+00
2.894421e+00
3.000000e+00
2.972183e+00
2.525877e+00
1.905300e+00
1.194780e+00
4.361353e-01
-3.502016e-01
-1.153625e+00
-1.782443e+00
-9.401660e-01
-1.006117e-01
7.346110e-01
1.562343e+00
2.375487e+00
3.000000e+00
3.000000e+00
3.000000e+00
3.000000e+00
3.000000e+00
2.226735e+00
1.410005e+00
5.805264e-01
-2.556720e-01
-2.403525e+00
-1.553175e+00
-7.028646e-01
1.473870e-01
9.975390e-01
1.847513e+00
2.697114e+00
3.000000e+00
3.000000e+00
3.000000e+00
3.000000e+00
3.000000e+00
2.194041e+00
1.344184e+00
4.940906e-01
-3.000000e+00
-2.316336e+00
-1.477285e+00
-6.416588e-01
1.887579e-01
1.010711e+00
1.817637e+00
2.594364e+00
3.000000e+00
3.000000e+00
3.000000e+00
3.000000e+00
2.594815e+00
1.818115e+00
1.011201e+00
-3.000000e+00
-3.000000e+00
-2.369799e+00
-1.560101e+00
-7.621665e-01
1.835012e-02
7.717934e-01
1.480728e+00
2.112188e+00
2.604112e+00
2.858099e+00
2.790512e+00
2.426564e+00
1.867917e+00
1.199478e+00
-3.000000e+00
-3.000000e+00
-3.000000e+00
-2.560934e+00
-1.795826e+00
-1.053545e+00
-3.436127e-01
3.192267e-01
9.120049e-01
1.399941e+00
1.735682e+00
1.869861e+00
1.777207e+00
1.475562e+00
1.012071e+00
-3.000000e+00
-3.000000e+00
-3.000000e+00
-3.000000e+00
-2.879726e+00
-2.169388e+00
-1.492828e+00
-8.617535e-01
-2.924581e-01
1.930542e-01
5.671706e-01
8.000169e-01
8.676424e-01
7.621303e-01
4.956303e-01
-3.000000e+00
-3.000000e+00
-3.000000e+00
-3.000000e+00
-3.000000e+00
-3.000000e+00
-2.660651e+00
-2.052433e+00
-1.498820e+00
-1.014912e+00
-6.187463e-01
-3.299241e-01
-1.664786e-01
-1.403852e-01
-2.536902e-01
-3.000000e+00
-3.000000e+00
-3.000000e+00
-3.000000e+00
-3.000000e+00
-3.000000e+00
-3.000000e+00
-3.000000e+00
-2.706191e+00
-2.223419e+00
-1.812989e+00
-1.488644e+00
-1.263769e+00
-1.149289e+00
-1.151369e+00
-3.000000e+00
-3.000000e+00
-3.000000e+00
-3.000000e+00
-3.000000e+00
-3.000000e+00
-3.000000e+00
-3.000000e+00
-3.000000e+00
-3.000000e+00
-3.000000e+00
-3.000000e+00
-3.000000e+00
-3.000000e+00
-3.000000e+00
-3.000000e+00
-3.000000e+00
-2.962524e+00
-2.821695e+00
-2.771915e+00
-2.814927e+00
-2.949223e+00
-3.000000e+00
-3.000000e+00
-3.000000e+00
-3.000000e+00
-3.000000e+00
-3.000000e+00
-3.000000e+00
-3.000000e+00
-2.919843e+00
-2.513699e+00
-2.185686e+00
-1.946876e+00
-1.806668e+00
-1.771192e+00
-1.842075e+00
-2.016093e+00
-2.285861e+00
-2.641244e+00
-3.000000e+00
-3.000000e+00
-3.000000e+00
-3.000000e+00
-3.000000e+00
-2.495771e+00
-1.983281e+00
-1.541598e+00
-1.185904e+00
-9.316912e-01
-7.923346e-01
-7.761564e-01
-8.841696e-01
-1.109792e+00
-1.440675e+00
-1.861610e+00
-2.357154e+00
-2.913304e+00
-3.000000e+00
-3.000000e+00
-2.250889e+00
-1.633470e+00
-1.072651e+00
-5.855069e-01
-1.928167e-01
8.274221e-02
2.208633e-01
2.096438e-01
5.009937e-02
-2.442498e-01
-6.523833e-01
-1.151695e+00
-1.721899e+00
-2.346503e+00
-3.000000e+00
-2.203495e+00
-1.493517e+00
-8.213258e-01
-2.015901e-01
3.446937e-01
7.888422e-01
1.095840e+00
1.232013e+00
1.179054e+00
9.443669e-01
5.566535e-01
5.175257e-02
-5.383754e-01
-1.189401e+00
-1.884070e+00
-2.357409e+00
-1.576837e+00
-8.159041e-01
-8.343744e-02
6.063037e-01
1.229796e+00
1.748700e+00
2.106197e+00
2.238861e+00
2.115504e+00
1.765285e+00
1.251255e+00
6.308541e-01
-5.691767e-02
-7.880950e-01
-2.700568e+00
-1.875315e+00
-1.057045e+00
-2.490268e-01
5.431609e-01
1.309312e+00
2.029211e+00
2.659780e+00
3.000000e+00
3.000000e+00
2.972785e+00
2.441251e+00
1.770226e+00
1.029822e+00
2.523866e-01
-3.000000e+00
-2.362831e+00
-1.517440e+00
-6.735702e-01
1.679788e-01
1.005744e+00
1.836713e+00
2.653658e+00
3.000000e+00