<?xml version="1.0"?>
<VTKFile byte_order="LittleEndian" version="1.0" type="ImageData">
<ImageData Origin="0.0000000000000000e+00 0.0000000000000000e+00 0.0000000000000000e+00" WholeExtent="0 29 0 29 0 29" Spacing="6.8965518474578857e-01 6.8965518474578857e-01 6.8965518474578857e-01">
<Piece Extent="0 29 0 29 0 29">
<PointData Scalars="wall">
<DataArray type="Float64" Name="wall" NumberOfComponents="1" format="ascii"/>-3.000000e+00
-3.000000e+00
-3.000000e+00
-3.000000e+00
-3.000000e+00
-3.000000e+00
-3.000000e+00
-3.000000e+00
-3.000000e+00
-3.000000e+00
-3.000000e+00
-3.000000e+00
-3.000000e+00
-3.000000e+00
-3.000000e+00
-3.000000e+00
-3.000000e+00
-3.000000e+00
-3.000000e+00
-3.000000e+00
-3.000000e+00
-3.000000e+00
-3.000000e+00
-3.000000e+00
-3.000000e+00
-3.000000e+00
-3.000000e+00
-3.000000e+00
-3.000000e+00
-3.000000e+00
-3.000000e+00
-3.000000e+00
-3.000000e+00
-3.000000e+00
-3.000000e+00
-3.000000e+00
-3.000000e+00
-3.000000e+00
-3.000000e+00
-3.000000e+00
-3.000000e+00
-3.000000e+00
-3.000000e+00
-3.000000e+00
-3.000000e+00
-3.000000e+00
-3.000000e+00
-3.000000e+00
-3.000000e+00
-3.000000e+00
-3.000000e+00
-3.000000e+00
-3.000000e+00
-3.000000e+00
-3.000000e+00
-3.000000e+00
-3.000000e+00
-3.000000e+00
-3.000000e+00
-3.000000e+00
-3.000000e+00
-3.000000e+00
-3.000000e+00
-3.000000e+00
-3.000000e+00
-3.000000e+00
-3.000000e+00
-3.000000e+00
-3.000000e+00
-3.000000e+00
-3.000000e+00
-3.000000e+00
-3.000000e+00
-3.000000e+00
-3.000000e+00
-3.000000e+00
-3.000000e+00
-3.000000e+00
-3.000000e+00
-3.000000e+00
-3.000000e+00
-3.000000e+00
-3.000000e+00
-3.000000e+00
-3.000000e+00
-3.000000e+00
-3.000000e+00
-3.000000e+00
-3.000000e+00
-3.000000e+00
-3.000000e+00
-3.000000e+00
-3.000000e+00
-3.000000e+00
-3.000000e+00
-3.000000e+00
-3.000000e+00
-3.000000e+00
-3.000000e+00
-3.000000e+00
-3.000000e+00
-3.000000e+00
-3.000000e+00
-3.000000e+00
-3.000000e+00
-3.000000e+00
-3.000000e+00
-3.000000e+00
-3.000000e+00
-3.000000e+00
-3.000000e+00
-3.000000e+00
-3.000000e+00
-3.000000e+00
-3.000000e+00
-3.000000e+00
-3.000000e+00
-3.000000e+00
-3.000000e+00
-3.000000e+00
-3.000000e+00
-3.000000e+00
-3.000000e+00
-3.000000e+00
-3.000000e+00
-3.000000e+00
-3.000000e+00
-3.000000e+00
-3.000000e+00
-3.000000e+00
-3.000000e+00
-3.000000e+00
-3.000000e+00
-3.000000e+00
-3.000000e+00
-3.000000e+00
-3.000000e+00
-3.000000e+00
-3.000000e+00
-3.000000e+00
-3.000000e+00
-3.000000e+00
-3.000000e+00
-3.000000e+00
-3.000000e+00
-3.000000e+00
-3.000000e+00
-3.000000e+00
-3.000000e+00
-3.000000e+00
-3.000000e+00
-3.000000e+00
-3.000000e+00
-3.000000e+00
-3.000000e+00
-3.000000e+00
-3.000000e+00
-3.000000e+00
-3.000000e+00
-3.000000e+00
-3.000000e+00
-3.000000e+00
-3.000000e+00
-3.000000e+00
-3.000000e+00
-3.000000e+00
-3.000000e+00
-3.000000e+00
-3.000000e+00
-3.000000e+00
-3.000000e+00
-3.000000e+00
-3.000000e+00
-3.000000e+00
-3.000000e+00
-3.000000e+00
-3.000000e+00
-3.000000e+00
-3.000000e+00
-3.000000e+00
-3.000000e+00
-3.000000e+00
-3.000000e+00
-3.000000e+00
-3.000000e+00
-3.000000e+00
-3.000000e+00
-3.000000e+00
-3.000000e+00
-3.000000e+00
-3.000000e+00
-3.000000e+00
-3.000000e+00
-3.000000e+00
-3.000000e+00
-3.000000e+00
-3.000000e+00
-3.000000e+00
-3.000000e+00
-3.000000e+00
-3.000000e+00
-3.000000e+00
-3.000000e+00
-3.000000e+00
-3.000000e+00
-3.000000e+00
-3.000000e+00
-3.000000e+00
-3.000000e+00
-3.000000e+00
-3.000000e+00
-3.000000e+00
-3.000000e+00
-3.000000e+00
-3.000000e+00
-3.000000e+00
-3.000000e+00
-3.000000e+00
-3.000000e+00
-3.000000e+00
-3.000000e+00
-3.000000e+00
-3.000000e+00
-3.000000e+00
-3.000000e+00
-3.000000e+00
-3.000000e+00
-3.000000e+00
-3.000000e+00
-3.000000e+00
-3.000000e+00
-3.000000e+00
-3.000000e+00
-3.000000e+00
-3.000000e+00
-3.000000e+00
-3.000000e+00
-3.000000e+00
-3.000000e+00
-3.000000e+00
-3.000000e+00
-3.000000e+00
-3.000000e+00
-3.000000e+00
-3.000000e+00
-3.000000e+00
-3.000000e+00
-3.000000e+00
-3.000000e+00
-3.000000e+00
-3.000000e+00
-3.000000e+00
-3.000000e+00
-3.000000e+00
-3.000000e+00
-3.000000e+00
-3.000000e+00
-3.000000e+00
-3.000000e+00
-3.000000e+00
-3.000000e+00
-3.000000e+00
-3.000000e+00
-3.000000e+00
-3.000000e+00
-3.000000e+00
-3.000000e+00
-3.000000e+00
-3.000000e+00
-3.000000e+00
-3.000000e+00
-3.000000e+00
-3.000000e+00
-3.000000e+00
-3.000000e+00
-3.000000e+00
-3.000000e+00
-3.000000e+00
-3.000000e+00
-3.000000e+00
-3.000000e+00
-3.000000e+00
-3.000000e+00
-3.000000e+00
-3.000000e+00
-3.000000e+00
-3.000000e+00
-3.000000e+00
-3.000000e+00
-3.000000e+00
-3.000000e+00
-3.000000e+00
-3.000000e+00
-3.000000e+00
-3.000000e+00
-3.000000e+00
-3.000000e+00
-3.000000e+00
-3.000000e+00
-3.000000e+00
-3.000000e+00
-3.000000e+00
-3.000000e+00
-3.000000e+00
-3.000000e+00
-3.000000e+00
-3.000000e+00
-3.000000e+00
-3.000000e+00
-3.000000e+00
-3.000000e+00
-3.000000e+00
-3.000000e+00
-3.000000e+00
-3.000000e+00
-3.000000e+00
-3.000000e+00
-3.000000e+00
-3.000000e+00
-3.000000e+00
-3.000000e+00
-3.000000e+00
-3.000000e+00
-3.000000e+00
-3.000000e+00
-3.000000e+00
-3.000000e+00
-3.000000e+00
-3.000000e+00
-3.000000e+00
-3.000000e+00
-3.000000e+00
-3.000000e+00
-3.000000e+00
-3.000000e+00
-3.000000e+00
-3.000000e+00
-3.000000e+00
-3.000000e+00
-3.000000e+00
-3.000000e+00
-3.000000e+00
-3.000000e+00
-3.000000e+00
-3.000000e+00
-2.860082e+00
-2.718849e+00
-2.629728e+00
-2.596264e+00
-2.620825e+00
-2.704330e+00
-2.846106e+00
-3.000000e+00
-3.000000e+00
-3.000000e+00
-3.000000e+00
-3.000000e+00
-3.000000e+00
-3.000000e+00
-3.000000e+00
-3.000000e+00
-3.000000e+00
-3.000000e+00
-3.000000e+00
-3.000000e+00
-3.000000e+00
-3.000000e+00
-3.000000e+00
-3.000000e+00
-3.000000e+00
-3.000000e+00
-3.000000e+00
-3.000000e+00
-2.811355e+00
-2.565995e+00
-2.363890e+00
-2.210734e+00
-2.111745e+00
-2.071274e+00
-2.092366e+00
-2.176349e+00
-2.322587e+00
-2.528534e+00
-2.790063e+00
-3.000000e+00
-3.000000e+00
-3.000000e+00
-3.000000e+00
-3.000000e+00
-3.000000e+00
-3.000000e+00
-3.000000e+00
-3.000000e+00
-3.000000e+00
-3.000000e+00
-3.000000e+00
-3.000000e+00
-3.000000e+00
-3.000000e+00
-3.000000e+00
-3.000000e+00
-2.972026e+00
-2.644107e+00
-2.347087e+00
-2.087086e+00
-1.870591e+00
-1.704134e+00
-1.593918e+00
-1.545338e+00
-1.562362e+00
-1.646895e+00
-1.798370e+00
-2.013767e+00
-2.288119e+00
-2.615269e+00
-2.988649e+00
-3.000000e+00
-3.000000e+00
-3.000000e+00
-3.000000e+00
-3.000000e+00
-3.000000e+00
-3.000000e+00
-3.000000e+00
-3.000000e+00
-3.000000e+00
-3.000000e+00
-3.000000e+00
-3.000000e+00
-3.000000e+00
-2.907628e+00
-2.541934e+00
-2.200369e+00
-1.888536e+00
-1.612944e+00
-1.380739e+00
-1.199384e+00
-1.076285e+00
-1.018214e+00
-1.030423e+00
-1.115649e+00
-1.273402e+00
-1.499991e+00
-1.789272e+00
-2.133775e+00
-2.525751e+00
-2.957906e+00
-3.000000e+00
-3.000000e+00
-3.000000e+00
-3.000000e+00
-3.000000e+00
-3.000000e+00
-3.000000e+00
-3.000000e+00
-3.000000e+00
-3.000000e+00
-3.000000e+00
-3.000000e+00
-2.893129e+00
-2.496817e+00
-2.118847e+00
-1.763520e+00
-1.436424e+00
-1.144344e+00
-8.950248e-01
-6.969225e-01
-5.588991e-01
-4.895690e-01
-4.960304e-01
-5.822138e-01
-7.477002e-01
-9.877682e-01
-1.294617e+00
-1.659043e+00
-2.071865e+00
-2.524766e+00
-3.000000e+00
-3.000000e+00
-3.000000e+00
-3.000000e+00
-3.000000e+00
-3.000000e+00
-3.000000e+00
-3.000000e+00
-3.000000e+00
-3.000000e+00
-3.000000e+00
-2.922356e+00
-2.500558e+00
-2.093292e+00
-1.703186e+00
-1.334137e+00
-9.915198e-01
-6.821844e-01
-4.143143e-01
-1.973330e-01
-4.182881e-02
4.105926e-02
4.152881e-02
-4.610894e-02
-2.214138e-01
-4.780170e-01
-8.057271e-01
-1.193083e+00
-1.629210e+00
-2.104727e+00
-2.611955e+00
-3.000000e+00
-3.000000e+00
-3.000000e+00
-3.000000e+00
-3.000000e+00
-3.000000e+00
-3.000000e+00
-3.000000e+00
-3.000000e+00
-2.993283e+00
-2.548084e+00
-2.115694e+00
-1.697406e+00
-1.295316e+00
-9.127448e-01
-5.545958e-01
-2.274794e-01
6.030795e-02
2.985944e-01
4.748221e-01
5.743430e-01
5.832376e-01
4.932073e-01
3.050230e-01
2.778469e-02
-3.248597e-01
-7.385696e-01
-1.200591e+00
-1.700528e+00
-2.230265e+00
-2.783591e+00
-3.000000e+00
-3.000000e+00
-3.000000e+00
-3.000000e+00
-3.000000e+00
-3.000000e+00
-3.000000e+00
-3.000000e+00
-2.639689e+00
-2.182909e+00
-1.739215e+00
-1.309579e+00
-8.955567e-01
-4.997619e-01
-1.263569e-01
2.186809e-01
5.274990e-01
7.897617e-01
9.909027e-01
1.111285e+00
1.130477e+00
1.036269e+00
8.306189e-01
5.272632e-01
1.447761e-01
-2.990174e-01
-7.894723e-01
-1.315401e+00
-1.868511e+00
-2.442704e+00
-3.000000e+00
-3.000000e+00
-3.000000e+00
-3.000000e+00
-3.000000e+00
-3.000000e+00
-3.000000e+00
-2.780839e+00
-2.298123e+00
-1.828308e+00
-1.372132e+00
-9.303982e-01
-5.042162e-01
-9.545577e-02
2.926690e-01
6.552387e-01
9.856385e-01
1.274620e+00
1.506181e+00
1.653454e+00
1.685194e+00
1.583377e+00
1.353325e+00
1.016657e+00
5.986855e-01
1.210458e-01
-4.000585e-01
-9.531004e-01
-1.529986e+00
-2.124986e+00
-2.733998e+00
-3.000000e+00
-3.000000e+00
-3.000000e+00
-3.000000e+00
-3.000000e+00
-2.979946e+00
-2.469328e+00
-1.971122e+00
-1.486343e+00
-1.015929e+00
-5.607412e-01
-1.216608e-01
3.000751e-01
7.022816e-01
1.081390e+00
1.432901e+00
1.750943e+00
2.020276e+00
2.203420e+00
2.250092e+00
2.134006e+00
1.869139e+00
1.490157e+00
1.030748e+00
5.159528e-01
-3.731444e-02
-6.178825e-01
-1.218305e+00
-1.833515e+00
-2.459978e+00
-3.000000e+00
-3.000000e+00
-3.000000e+00
-3.000000e+00
-3.000000e+00
-2.706228e+00
-2.177875e+00
-1.661928e+00
-1.159744e+00
-6.726503e-01
-2.018483e-01
2.516551e-01
6.869523e-01
1.102780e+00
1.496971e+00
1.867587e+00
2.215515e+00
2.532523e+00
2.765667e+00
2.828666e+00
2.685380e+00
2.370670e+00
1.939127e+00
1.432946e+00
8.788595e-01
2.930762e-01
-3.144352e-01
-9.373581e-01
-1.571531e+00
-2.214131e+00
-3.000000e+00
-3.000000e+00
-3.000000e+00
-3.000000e+00
-3.000000e+00
-2.458902e+00
-1.910761e+00
-1.374540e+00
-8.519759e-01
-3.449266e-01
1.447512e-01
6.154110e-01
1.065860e+00
1.495357e+00
1.903064e+00
2.289059e+00
2.663849e+00
3.000000e+00
3.000000e+00
3.000000e+00
3.000000e+00
2.845142e+00
2.351458e+00
1.795300e+00
1.201835e+00
5.848230e-01
-4.780485e-02
-6.912307e-01
-1.342381e+00
-1.999226e+00
-3.000000e+00
-3.000000e+00
-3.000000e+00
-3.000000e+00
-2.821901e+00
-2.242978e+00
-1.673063e+00
-1.113845e+00
-5.673648e-01
-3.602774e-02
4.774249e-01
9.700983e-01
1.439395e+00
1.883782e+00
2.303361e+00
2.699818e+00
3.000000e+00
3.000000e+00
3.000000e+00
3.000000e+00
3.000000e+00
3.000000e+00
2.711416e+00
2.106080e+00
1.476062e+00
8.311660e-01
1.767343e-01
-4.841128e-01
-1.149445e+00
-1.818017e+00
-3.000000e+00
-3.000000e+00
-3.000000e+00
-3.000000e+00
-2.664358e+00
-2.064117e+00
-1.470774e+00
-8.859069e-01
-3.115597e-01
2.496077e-01
7.941476e-01
1.317674e+00
1.814915e+00
2.280457e+00
2.711179e+00
3.000000e+00
3.000000e+00
3.000000e+00
3.000000e+00
3.000000e+00
3.000000e+00
3.000000e+00
3.000000e+00
2.352193e+00
1.692082e+00
1.025057e+00
3.537984e-01
-3.201958e-01
-9.960358e-01
-1.673168e+00
-3.000000e+00
-3.000000e+00
-3.000000e+00
-3.000000e+00
-2.550152e+00
-1.928560e+00
-1.310998e+00
-6.985447e-01
-9.269255e-02
5.044564e-01
1.089852e+00
1.658953e+00
2.204829e+00
2.716798e+00
3.000000e+00
3.000000e+00
3.000000e+00
3.000000e+00
3.000000e+00
3.000000e+00
3.000000e+00
3.000000e+00
3.000000e+00
2.519550e+00
1.840059e+00
1.159383e+00
4.781018e-01
-2.035036e-01
-8.852786e-01
-1.567147e+00
-3.000000e+00
-3.000000e+00
-3.000000e+00
-3.000000e+00
-2.484398e+00
-1.842838e+00
-1.201995e+00
-5.620774e-01
7.661281e-02
7.136258e-01
1.348264e+00
1.979382e+00
2.604958e+00
3.000000e+00
3.000000e+00
3.000000e+00
3.000000e+00
3.000000e+00
3.000000e+00
3.000000e+00
3.000000e+00
3.000000e+00
3.000000e+00
2.593621e+00
1.910306e+00
1.227402e+00
5.447782e-01
-1.376472e-01
-8.199239e-01
-1.502088e+00
-3.000000e+00
-3.000000e+00
-3.000000e+00
-3.000000e+00
-2.471164e+00
-1.813022e+00
-1.152656e+00
-4.894344e-01
1.775328e-01
8.495262e-01
1.528444e+00
2.217162e+00
2.920049e+00
3.000000e+00
3.000000e+00
3.000000e+00
3.000000e+00
3.000000e+00
3.000000e+00
3.000000e+00
3.000000e+00
3.000000e+00
3.000000e+00
2.561577e+00
1.894663e+00
1.223619e+00
5.499626e-01
-1.254467e-01
-8.020869e-01
-1.479627e+00
-3.000000e+00
-3.000000e+00
-3.000000e+00
-3.000000e+00
-2.512358e+00
-1.843313e+00
-1.170760e+00
-4.940674e-01
1.873814e-01
8.739178e-01
1.564835e+00
2.256249e+00
2.935152e+00
3.000000e+00
3.000000e+00
3.000000e+00
3.000000e+00
3.000000e+00
3.000000e+00
3.000000e+00
3.000000e+00
3.000000e+00
3.000000e+00
2.417629e+00
1.789150e+00
1.145212e+00
4.915959e-01
-1.684483e-01
-8.329587e-01
-1.500690e+00
-3.000000e+00
-3.000000e+00
-3.000000e+00
-3.000000e+00
-2.606701e+00
-1.934350e+00
-1.260023e+00
-5.845963e-01
8.983117e-02
7.586763e-01
1.412459e+00
2.032391e+00
2.583839e+00
3.000000e+00
3.000000e+00
3.000000e+00
3.000000e+00
3.000000e+00
3.000000e+00
3.000000e+00
3.000000e+00
3.000000e+00
2.690904e+00
2.169241e+00
1.596903e+00
9.935379e-01
3.702401e-01
-2.664539e-01
-9.125118e-01
-1.565337e+00
-3.000000e+00
-3.000000e+00
-3.000000e+00
-3.000000e+00
-3.000000e+00
-3.000000e+00
-3.000000e+00
-3.000000e+00
-3.000000e+00
-3.000000e+00
-3.000000e+00
-3.000000e+00
-3.000000e+00
-3.000000e+00
-3.000000e+00
-3.000000e+00
-3.000000e+00
-3.000000e+00
-3.000000e+00
-3.000000e+00
-3.000000e+00
-3.000000e+00
-3.000000e+00
-3.000000e+00
-3.000000e+00
-3.000000e+00
-3.000000e+00
-3.000000e+00
-3.000000e+00
-3.000000e+00
-3.000000e+00
-3.000000e+00
-3.000000e+00
-3.000000e+00
-3.000000e+00
-3.000000e+00
-3.000000e+00
-3.000000e+00
-3.000000e+00
-3.000000e+00
-3.000000e+00
-3.000000e+00
-3.000000e+00
-3.000000e+00
-3.000000e+00
-3.000000e+00
-3.000000e+00
-3.000000e+00
-3.000000e+00
-3.000000e+00
-3.000000e+00
-3.000000e+00
-3.000000e+00
-3.000000e+00
-3.000000e+00
-3.000000e+00
-3.000000e+00
-3.000000e+00
-3.000000e+00
-3.000000e+00
-3.000000e+00
-3.000000e+00
-3.000000e+00
-3.000000e+00
-3.000000e+00
-3.000000e+00
-3.000000e+00
-3.000000e+00
-3.000000e+00
-3.000000e+00
-3.000000e+00
-3.000000e+00
-3.000000e+00
-3.000000e+00
-3.000000e+00
-3.000000e+00
-3.000000e+00
-3.000000e+00
-3.000000e+00
-3.000000e+00
-3.000000e+00
-3.000000e+00
-3.000000e+00
-3.000000e+00
-3.000000e+00
-3.000000e+00
-3.000000e+00
-3.000000e+00
-3.000000e+00
-3.000000e+00
-3.000000e+00
-3.000000e+00
-3.000000e+00
-3.000000e+00
-3.000000e+00
-3.000000e+00
-3.000000e+00
-3.000000e+00
-3.000000e+00
-3.000000e+00
-3.000000e+00
-3.000000e+00
-3.000000e+00
-3.000000e+00
-3.000000e+00
-3.000000e+00
-3.000000e+00
-3.000000e+00
-3.000000e+00
-3.000000e+00
-3.000000e+00
-3.000000e+00
-3.000000e+00
-3.000000e+00
-3.000000e+00
-3.000000e+00
-3.000000e+00
-3.000000e+00
-3.000000e+00
-3.000000e+00
-3.000000e+00
-3.000000e+00
-3.000000e+00
-3.000000e+00
-3.000000e+00
-3.000000e+00
-3.000000e+00
-3.000000e+00
-3.000000e+00
-3.000000e+00
-3.000000e+00
-3.000000e+00
-3.000000e+00
-3.000000e+00
-3.000000e+00
-3.000000e+00
-3.000000e+00
-3.000000e+00
-3.000000e+00
-3.000000e+00
-3.000000e+00
-3.000000e+00
-3.000000e+00
-3.000000e+00
-3.000000e+00
-3.000000e+00
-3.000000e+00
-3.000000e+00
-3.000000e+00
-3.000000e+00
-3.000000e+00
-3.000000e+00
-3.000000e+00
-3.000000e+00
-3.000000e+00
-3.000000e+00
-3.000000e+00
-3.000000e+00
-3.000000e+00
-3.000000e+00
-3.000000e+00
-3.000000e+00
-3.000000e+00
-3.000000e+00
-3.000000e+00
-3.000000e+00
-3.000000e+00
-3.000000e+00
-3.000000e+00
-3.000000e+00
-3.000000e+00
-3.000000e+00
-3.000000e+00
-3.000000e+00
-3.000000e+00
-3.000000e+00
-3.000000e+00
-3.000000e+00
-3.000000e+00
-3.000000e+00
-3.000000e+00
-3.000000e+00
-3.000000e+00
-3.000000e+00
-3.000000e+00
-3.000000e+00
-3.000000e+00
-3.000000e+00
-3.000000e+00
-3.000000e+00
-3.000000e+00
-3.000000e+00
-3.000000e+00
-3.000000e+00
-3.000000e+00
-3.000000e+00
-3.000000e+00
-3.000000e+00
-3.000000e+00
-3.000000e+00
-3.000000e+00
-3.000000e+00
-3.000000e+00
-3.000000e+00
-3.000000e+00
-3.000000e+00
-3.000000e+00
-3.000000e+00
-3.000000e+00
-3.000000e+00
-3.000000e+00
-3.000000e+00
-3.000000e+00
-3.000000e+00
-3.000000e+00
-3.000000e+00
-3.000000e+00
-3.000000e+00
-3.000000e+00
-3.000000e+00
-3.000000e+00
-3.000000e+00
-3.000000e+00
-3.000000e+00
-3.000000e+00
-3.000000e+00
-3.000000e+00
-3.000000e+00
-3.000000e+00
-3.000000e+00
-3.000000e+00
-3.000000e+00
-3.000000e+00
-3.000000e+00
-3.000000e+00
-3.000000e+00
-3.000000e+00
-3.000000e+00
-3.000000e+00
-3.000000e+00
-3.000000e+00
-3.000000e+00
-3.000000e+00
-3.000000e+00
-3.000000e+00
-3.000000e+00
-3.000000e+00
-3.000000e+00
-3.000000e+00
-3.000000e+00
-3.000000e+00
-3.000000e+00
-3.000000e+00
-3.000000e+00
-3.000000e+00
-3.000000e+00
-3.000000e+00
-3.000000e+00
-3.000000e+00
-3.000000e+00
-3.000000e+00
-3.000000e+00
-3.000000e+00
-3.000000e+00
-3.000000e+00
-3.000000e+00
-3.000000e+00
-3.000000e+00
-3.000000e+00
-3.000000e+00
-3.000000e+00
-3.000000e+00
-3.000000e+00
-3.000000e+00
-3.000000e+00
-3.000000e+00
-3.000000e+00
-3.000000e+00
-3.000000e+00
-3.000000e+00
-3.000000e+00
-3.000000e+00
-3.000000e+00
-3.000000e+00
-3.000000e+00
-3.000000e+00
-3.000000e+00
-3.000000e+00
-3.000000e+00
-3.000000e+00
-3.000000e+00
-3.000000e+00
-3.000000e+00
-3.000000e+00
-3.000000e+00
-3.000000e+00
-3.000000e+00
-3.000000e+00
-3.000000e+00
-3.000000e+00
-3.000000e+00
-3.000000e+00
-3.000000e+00
-3.000000e+00
-3.000000e+00
-3.000000e+00
-3.000000e+00
-3.000000e+00
-3.000000e+00
-3.000000e+00
-3.000000e+00
-3.000000e+00
-3.000000e+00
-3.000000e+00
-3.000000e+00
-2.926714e+00
-2.796693e+00
-2.719084e+00
-2.697113e+00
-2.732804e+00
-2.826737e+00
-2.977958e+00
-3.000000e+00
-3.000000e+00
-3.000000e+00
-3.000000e+00
-3.000000e+00
-3.000000e+00
-3.000000e+00
-3.000000e+00
-3.000000e+00
-3.000000e+00
-3.000000e+00
-3.000000e+00
-3.000000e+00
-3.000000e+00
-3.000000e+00
-3.000000e+00
-3.000000e+00
-3.000000e+00
-3.000000e+00
-3.000000e+00
-3.000000e+00
-2.854134e+00
-2.618863e+00
-2.427791e+00
-2.286399e+00
-2.199610e+00
-2.171403e+00
-2.204400e+00
-2.299510e+00
-2.455746e+00
-2.670324e+00
-2.939034e+00
-3.000000e+00
-3.000000e+00
-3.000000e+00
-3.000000e+00
-3.000000e+00
-3.000000e+00
-3.000000e+00
-3.000000e+00
-3.000000e+00
-3.000000e+00
-3.000000e+00
-3.000000e+00
-3.000000e+00
-3.000000e+00
-3.000000e+00
-3.000000e+00
-3.000000e+00
-2.994347e+00
-2.674222e+00
-2.386239e+00
-2.136513e+00
-1.931432e+00
-1.777321e+00
-1.680070e+00
-1.644638e+00
-1.674475e+00
-1.770950e+00
-1.933043e+00
-2.157453e+00
-2.439129e+00
-2.772003e+00
-3.000000e+00
-3.000000e+00
-3.000000e+00
-3.000000e+00
-3.000000e+00
-3.000000e+00
-3.000000e+00
-3.000000e+00
-3.000000e+00
-3.000000e+00
-3.000000e+00
-3.000000e+00
-3.000000e+00
-3.000000e+00
-3.000000e+00
-2.919877e+00
-2.560592e+00
-2.226643e+00
-1.923783e+00
-1.658584e+00
-1.438137e+00
-1.269730e+00
-1.160445e+00
-1.116554e+00
-1.142657e+00
-1.240782e+00
-1.409853e+00
-1.645836e+00
-1.942531e+00
-2.292625e+00
-2.688642e+00
-3.000000e+00
-3.000000e+00
-3.000000e+00
-3.000000e+00
-3.000000e+00
-3.000000e+00
-3.000000e+00
-3.000000e+00
-3.000000e+00
-3.000000e+00
-3.000000e+00
-3.000000e+00
-3.000000e+00
-2.896694e+00
-2.505582e+00
-2.133750e+00
-1.785779e+00
-1.467495e+00
-1.185823e+00
-9.485348e-01
-7.639790e-01
-6.407155e-01
-5.867883e-01
-6.084489e-01
-7.086747e-01
-8.862627e-01
-1.136088e+00
-1.450346e+00
-1.820110e+00
-2.236583e+00
-2.691845e+00
-3.000000e+00
-3.000000e+00
-3.000000e+00
-3.000000e+00
-3.000000e+00
-3.000000e+00
-3.000000e+00
-3.000000e+00
-3.000000e+00
-3.000000e+00
-3.000000e+00
-2.918110e+00
-2.500790e+00
-2.098534e+00
-1.714273e+00
-1.352249e+00
-1.018160e+00
-7.191097e-01
-4.634238e-01
-2.605452e-01
-1.208498e-01
-5.483688e-02
-7.118706e-02
-1.742482e-01
-3.625170e-01
-6.291693e-01
-9.641379e-01
-1.356414e+00
-1.795670e+00
-2.273012e+00
-2.781151e+00
-3.000000e+00
-3.000000e+00
-3.000000e+00
-3.000000e+00
-3.000000e+00
-3.000000e+00
-3.000000e+00
-3.000000e+00
-3.000000e+00
-2.981206e+00
-2.540339e+00
-2.112465e+00
-1.699072e+00
-1.302557e+00
-9.266294e-01
-5.766035e-01
-2.594642e-01
1.618264e-02
2.399210e-01
3.991964e-01
4.800222e-01
4.700343e-01
3.628953e-01
1.608372e-01
-1.265891e-01
-4.861107e-01
-9.041169e-01
-1.368587e+00
-1.869715e+00
-2.399817e+00
-2.952969e+00
-3.000000e+00
-3.000000e+00
-3.000000e+00
-3.000000e+00
-3.000000e+00
-3.000000e+00
-3.000000e+00
-3.000000e+00
-2.623462e+00
-2.171296e+00
-1.732296e+00
-1.307571e+00
-8.989366e-01
-5.094027e-01
-1.436116e-01
1.919734e-01
4.889961e-01
7.365097e-01
9.194860e-01
1.018858e+00
1.016450e+00
9.030735e-01
6.826845e-01
3.692931e-01
-1.936491e-02
-4.665778e-01
-9.586434e-01
-1.485046e+00
-2.037938e+00
-2.611501e+00
-3.000000e+00
-3.000000e+00
-3.000000e+00
-3.000000e+00
-3.000000e+00
-3.000000e+00
-3.000000e+00
-2.754784e+00
-2.277070e+00
-1.812281e+00
-1.361144e+00
-9.245181e-01
-5.036960e-01
-1.008982e-01
2.801660e-01
6.340249e-01
9.534016e-01
1.227913e+00
1.440120e+00
1.563311e+00
1.569744e+00
1.446278e+00
1.200872e+00
8.548238e-01
4.318210e-01
-4.808930e-02
-5.698295e-01
-1.122579e+00
-1.698664e+00
-2.292603e+00
-2.900435e+00
-3.000000e+00
-3.000000e+00
-3.000000e+00
-3.000000e+00
-3.000000e+00
-2.942374e+00
-2.437094e+00
-1.944368e+00
-1.465140e+00
-1.000287e+00
-5.506326e-01
-1.171243e-01
2.987570e-01
6.943790e-01
1.065656e+00
1.407457e+00
1.712200e+00
1.961260e+00
2.116014e+00
2.132115e+00
1.991582e+00
1.711413e+00
1.324484e+00
8.616865e-01
3.460096e-01
-2.068442e-01
-7.863626e-01
-1.385453e+00
-1.999231e+00
-2.624264e+00
-3.000000e+00
-3.000000e+00
-3.000000e+00
-3.000000e+00
-3.000000e+00
-2.660981e+00
-2.138342e+00
-1.628374e+00
-1.132362e+00
-6.515238e-01
-1.869448e-01
2.604507e-01
6.896864e-01
1.099180e+00
1.486351e+00
1.849069e+00
2.186455e+00
2.483186e+00
2.681404e+00
2.706108e+00
2.535801e+00
2.207242e+00
1.770216e+00
1.262753e+00
7.092939e-01
1.249405e-01
-4.808603e-01
-1.102023e+00
-1.734501e+00
-2.375515e+00
-3.000000e+00
-3.000000e+00
-3.000000e+00
-3.000000e+00
-2.957687e+00
-2.404755e+00
-1.862634e+00
-1.332866e+00
-8.171376e-01
-3.172023e-01
1.652573e-01
6.288313e-01
1.072525e+00
1.495549e+00
1.896741e+00
2.276690e+00
2.646215e+00
3.000000e+00
3.000000e+00
3.000000e+00
3.000000e+00
2.676560e+00
2.180882e+00
1.625762e+00
1.034336e+00
4.195814e-01
-2.108639e-01
-8.522844e-01
-1.501631e+00
-2.156865e+00
-3.000000e+00
-3.000000e+00
-3.000000e+00
-3.000000e+00
-2.751946e+00
-2.178603e+00
-1.614865e+00
-1.062468e+00
-5.234625e-01
-2.158419e-04
5.046767e-01
9.886332e-01
1.449573e+00
1.886535e+00
2.299722e+00
2.691250e+00
3.000000e+00
3.000000e+00
3.000000e+00
3.000000e+00
3.000000e+00
3.000000e+00
2.542133e+00
1.939861e+00
1.312880e+00
6.706911e-01
1.859525e-02
-6.402529e-01
-1.303874e+00
-1.970978e+00
-3.000000e+00
-3.000000e+00
-3.000000e+00
-3.000000e+00
-2.583011e+00
-1.988123e+00
-1.400866e+00
-8.229382e-01
-2.565132e-01
2.956341e-01
8.300019e-01
1.342326e+00
1.827856e+00
2.282462e+00
2.705148e+00
3.000000e+00
3.000000e+00
3.000000e+00
3.000000e+00
3.000000e+00
3.000000e+00
3.000000e+00
2.836848e+00
2.192936e+00
1.536066e+00
8.716024e-01
2.023883e-01
-4.699533e-01
-1.144439e+00
-1.820445e+00
-3.000000e+00
-3.000000e+00
-3.000000e+00
-3.000000e+00
-2.456385e+00
-1.839597e+00
-1.227632e+00
-6.217659e-01
-2.374850e-02
5.639766e-01
1.137921e+00
1.693012e+00
2.221814e+00
2.713673e+00
3.000000e+00
3.000000e+00
3.000000e+00
3.000000e+00
3.000000e+00
3.000000e+00
3.000000e+00
3.000000e+00
3.000000e+00
2.371964e+00
1.694672e+00
1.015568e+00
3.354467e-01
-3.452744e-01
-1.026362e+00
-1.707681e+00
-3.000000e+00
-3.000000e+00
-3.000000e+00
-3.000000e+00
-2.377504e+00
-1.739802e+00
-1.103517e+00
-4.690696e-01
1.629393e-01
7.916104e-01
1.415550e+00
2.032469e+00
2.638344e+00
3.000000e+00
3.000000e+00
3.000000e+00
3.000000e+00
3.000000e+00
3.000000e+00
3.000000e+00
3.000000e+00
3.000000e+00
3.000000e+00
2.463459e+00
1.779545e+00
1.096125e+00
4.130574e-01
-2.697486e-01
-9.523528e-01
-1.634805e+00
-3.000000e+00
-3.000000e+00
-3.000000e+00
-3.000000e+00
-2.351013e+00
-1.695396e+00
-1.037955e+00
-3.781483e-01
2.847965e-01
9.520198e-01
1.625274e+00
2.307367e+00
3.000000e+00
3.000000e+00
3.000000e+00
3.000000e+00
3.000000e+00
3.000000e+00
3.000000e+00
3.000000e+00
3.000000e+00
3.000000e+00
3.000000e+00
2.455061e+00
1.782684e+00
1.107816e+00
4.313430e-01
-2.462248e-01
-9.245676e-01
-1.603482e+00
-3.000000e+00
-3.000000e+00
-3.000000e+00
-3.000000e+00
-2.379673e+00
-1.711602e+00
-1.039955e+00
-3.639683e-01
3.172218e-01
1.004427e+00
1.697867e+00
2.395436e+00
3.000000e+00
3.000000e+00
3.000000e+00
3.000000e+00
3.000000e+00
3.000000e+00
3.000000e+00
3.000000e+00
3.000000e+00
3.000000e+00
2.960047e+00
2.339687e+00
1.699402e+00
1.047394e+00
3.879637e-01
-2.764407e-01
-9.443296e-01
-1.614748e+00
-3.000000e+00
-3.000000e+00
-3.000000e+00
-3.000000e+00
-2.463172e+00
-1.790344e+00
-1.115042e+00
-4.378557e-01
2.395358e-01
9.131416e-01
1.574148e+00
2.204002e+00
2.766245e+00
3.000000e+00
3.000000e+00
3.000000e+00
3.000000e+00
3.000000e+00
3.000000e+00
3.000000e+00
3.000000e+00
3.000000e+00
2.669300e+00
2.121174e+00
1.531017e+00
9.152069e-01
2.828854e-01
-3.605792e-01
-1.011867e+00
-1.668837e+00
-3.000000e+00
-3.000000e+00
-3.000000e+00
-3.000000e+00
-2.597600e+00
-1.928830e+00
-1.262001e+00
-6.004143e-01
5.004168e-02
6.792124e-01
1.270376e+00
1.798163e+00
2.229701e+00
2.534774e+00
2.708299e+00
2.790590e+00
2.846683e+00
2.901206e+00
2.953971e+00
2.984508e+00
2.901633e+00
2.660274e+00
2.284785e+00
1.816033e+00
1.286093e+00
7.159700e-01
1.188403e-01
-4.969842e-01
-1.126141e+00
-1.765069e+00
-3.000000e+00
-3.000000e+00
-3.000000e+00
-3.000000e+00
-3.000000e+00
-3.000000e+00
-3.000000e+00
-3.000000e+00
-3.000000e+00
-3.000000e+00
-3.000000e+00
-3.000000e+00
-3.000000e+00
-3.000000e+00
-3.000000e+00
-3.000000e+00
-3.000000e+00
-3.000000e+00
-3.000000e+00
-3.000000e+00
-3.000000e+00
-3.000000e+00
-3.000000e+00
-3.000000e+00
-3.000000e+00
-3.000000e+00
-3.000000e+00
-3.000000e+00
-3.000000e+00
-3.000000e+00
-3.000000e+00
-3.000000e+00
-3.000000e+00
-3.000000e+00
-3.000000e+00
-3.000000e+00
-3.000000e+00
-3.000000e+00
-3.000000e+00
-3.000000e+00
-3.000000e+00
-3.000000e+00
-3.000000e+00
-3.000000e+00
-3.000000e+00
-3.000000e+00
-3.000000e+00
-3.000000e+00
-3.000000e+00
-3.000000e+00
-3.000000e+00
-3.000000e+00
-3.000000e+00
-3.000000e+00
-3.000000e+00
-3.000000e+00
-3.000000e+00
-3.000000e+00
-3.000000e+00
-3.000000e+00
-3.000000e+00
-3.000000e+00
-3.000000e+00
-3.000000e+00
-3.000000e+00
-3.000000e+00
-3.000000e+00
-3.000000e+00
-3.000000e+00
-3.000000e+00
-3.000000e+00
-3.000000e+00
-3.000000e+00
-3.000000e+00
-3.000000e+00
-3.000000e+00
-3.000000e+00
-3.000000e+00
-3.000000e+00
-3.000000e+00
-3.000000e+00
-3.000000e+00
-3.000000e+00
-3.000000e+00
-3.000000e+00
-3.000000e+00
-3.000000e+00
-3.000000e+00
-3.000000e+00
-3.000000e+00
-3.000000e+00
-3.000000e+00
-3.000000e+00
-3.000000e+00
-3.000000e+00
-3.000000e+00
-3.000000e+00
-3.000000e+00
-3.000000e+00
-3.000000e+00
-3.000000e+00
-3.000000e+00
-3.000000e+00
-3.000000e+00
-3.000000e+00
-3.000000e+00
-3.000000e+00
-3.000000e+00
-3.000000e+00
-3.000000e+00
-3.000000e+00
-3.000000e+00
-3.000000e+00
-3.000000e+00
-3.000000e+00
-3.000000e+00
-3.000000e+00
-3.000000e+00
-3.000000e+00
-3.000000e+00
-3.000000e+00
-3.000000e+00
-3.000000e+00
-3.000000e+00
-3.000000e+00
-3.000000e+00
-3.000000e+00
-3.000000e+00
-3.000000e+00
-3.000000e+00
-3.000000e+00
-3.000000e+00
-3.000000e+00
-3.000000e+00
-3.000000e+00
-3.000000e+00
-3.000000e+00
-3.000000e+00
-3.000000e+00
-3.000000e+00
-3.000000e+00
-3.000000e+00
-3.000000e+00
-3.000000e+00
-3.000000e+00
-3.000000e+00
-3.000000e+00
-3.000000e+00
-3.000000e+00
-3.000000e+00
-3.000000e+00
-3.000000e+00
-3.000000e+00
-3.000000e+00
-3.000000e+00
-3.000000e+00
-3.000000e+00
-3.000000e+00
-3.000000e+00
-3.000000e+00
-3.000000e+00
-3.000000e+00
-3.000000e+00
-3.000000e+00
-3.000000e+00
-3.000000e+00
-3.000000e+00
-3.000000e+00
-3.000000e+00
-3.000000e+00
-3.000000e+00
-3.000000e+00
-3.000000e+00
-3.000000e+00
-3.000000e+00
-3.000000e+00
-3.000000e+00
-3.000000e+00
-3.000000e+00
-3.000000e+00
-3.000000e+00
-3.000000e+00
-3.000000e+00
-3.000000e+00
-3.000000e+00
-3.000000e+00
-3.000000e+00
-3.000000e+00
-3.000000e+00
-3.000000e+00
-3.000000e+00
-3.000000e+00
-3.000000e+00
-3.000000e+00
-3.000000e+00
-3.000000e+00
-3.000000e+00
-3.000000e+00
-3.000000e+00
-3.000000e+00
-3.000000e+00
-3.000000e+00
-3.000000e+00
-3.000000e+00
-3.000000e+00
-3.000000e+00
-3.000000e+00
-3.000000e+00
-3.000000e+00
-3.000000e+00
-3.000000e+00
-3.000000e+00
-3.000000e+00
-3.000000e+00
-3.000000e+00
-3.000000e+00
-3.000000e+00
-3.000000e+00
-3.000000e+00
-3.000000e+00
-3.000000e+00
-3.000000e+00
-3.000000e+00
-3.000000e+00
-3.000000e+00
-3.000000e+00
-3.000000e+00
-3.000000e+00
-3.000000e+00
-3.000000e+00
-3.000000e+00
-3.000000e+00
-3.000000e+00
-3.000000e+00
-3.000000e+00
-3.000000e+00
-3.000000e+00
-3.000000e+00
-3.000000e+00
-3.000000e+00
-3.000000e+00
-3.000000e+00
-3.000000e+00
-3.000000e+00
-3.000000e+00
-3.000000e+00
-3.000000e+00
-3.000000e+00
-3.000000e+00
-3.000000e+00
-3.000000e+00
-3.000000e+00
-3.000000e+00
-3.000000e+00
-3.000000e+00
-3.000000e+00
-3.000000e+00
-3.000000e+00
-3.000000e+00
-3.000000e+00
-3.000000e+00
-3.000000e+00
-3.000000e+00
-3.000000e+00
-3.000000e+00
-3.000000e+00
-3.000000e+00
-3.000000e+00
-3.000000e+00
-3.000000e+00
-3.000000e+00
-3.000000e+00
-3.000000e+00
-3.000000e+00
-3.000000e+00
-3.000000e+00
-3.000000e+00
-3.000000e+00
-3.000000e+00
-3.000000e+00
-3.000000e+00
-3.000000e+00
-3.000000e+00
-3.000000e+00
-3.000000e+00
-2.995814e+00
-2.876972e+00
-2.810770e+00
-2.800117e+00
-2.846700e+00
-2.950783e+00
-3.000000e+00
-3.000000e+00
-3.000000e+00
-3.000000e+00
-3.000000e+00
-3.000000e+00
-3.000000e+00
-3.000000e+00
-3.000000e+00
-3.000000e+00
-3.000000e+00
-3.000000e+00
-3.000000e+00
-3.000000e+00
-3.000000e+00
-3.000000e+00
-3.000000e+00
-3.000000e+00
-3.000000e+00
-3.000000e+00
-3.000000e+00
-3.000000e+00
-2.899320e+00
-2.674273e+00
-2.494305e+00
-2.364666e+00
-2.289976e+00
-2.273842e+00
-2.318478e+00
-2.424397e+00
-2.590289e+00
-2.813176e+00
-3.000000e+00
-3.000000e+00
-3.000000e+00
-3.000000e+00
-3.000000e+00
-3.000000e+00
-3.000000e+00
-3.000000e+00
-3.000000e+00
-3.000000e+00
-3.000000e+00
-3.000000e+00
-3.000000e+00
-3.000000e+00
-3.000000e+00
-3.000000e+00
-3.000000e+00
-3.000000e+00
-3.000000e+00