<?xml version="1.0"?>
<VTKFile byte_order="LittleEndian" version="1.0" type="ImageData">
<ImageData Origin="0.0000000000000000e+00 0.0000000000000000e+00 0.0000000000000000e+00" WholeExtent="0 14 0 14 0 14" Spacing="1.4285714626312256e+00 1.4285714626312256e+00 1.4285714626312256e+00">
<Piece Extent="0 14 0 14 0 14">
<PointData Scalars="wall">
<DataArray type="Float64" Name="wall" NumberOfComponents="1" format="ascii"/>-3.000000e+00
-4.789338e-01
-1.379059e+00
-2.281947e+00
-3.000000e+00
-3.000000e+00
-3.000000e+00
-3.000000e+00
-3.000000e+00
-3.000000e+00
-3.000000e+00
-3.000000e+00
-3.000000e+00
-3.000000e+00
-3.000000e+00
1.232682e+00
3.220611e-01
-5.887575e-01
-1.499693e+00
-2.410699e+00
-3.000000e+00
-3.000000e+00
-3.000000e+00
-3.000000e+00
-3.000000e+00
-3.000000e+00
-3.000000e+00
-3.000000e+00
-3.000000e+00
-3.000000e+00
1.722993e+00
8.639841e-01
-1.349783e-02
-9.012179e-01
-1.795166e+00
-2.693170e+00
-3.000000e+00
-3.000000e+00
-3.000000e+00
-3.000000e+00
-3.000000e+00
-3.000000e+00
-3.000000e+00
-3.000000e+00
-3.000000e+00
1.737491e+00
1.039035e+00
2.676425e-01
-5.463367e-01
-1.386641e+00
-2.244114e+00
-3.000000e+00
-3.000000e+00
-3.000000e+00
-3.000000e+00
-3.000000e+00
-3.000000e+00
-3.000000e+00
-3.000000e+00
-3.000000e+00
1.270622e+00
8.010750e-01
2.026715e-01
-4.825573e-01
-1.226009e+00
-2.009182e+00
-2.820150e+00
-3.000000e+00
-3.000000e+00
-3.000000e+00
-3.000000e+00
-3.000000e+00
-3.000000e+00
-3.000000e+00
-3.000000e+00
4.688115e-01
2.112832e-01
-1.954432e-01
-7.196264e-01
-1.332166e+00
-2.009935e+00
-2.735809e+00
-3.000000e+00
-3.000000e+00
-3.000000e+00
-3.000000e+00
-3.000000e+00
-3.000000e+00
-3.000000e+00
-3.000000e+00
-5.239639e-01
-6.206536e-01
-8.591809e-01
-1.223257e+00
-1.692424e+00
-2.246298e+00
-2.867009e+00
-3.000000e+00
-3.000000e+00
-3.000000e+00
-3.000000e+00
-3.000000e+00
-3.000000e+00
-3.000000e+00
-3.000000e+00
-1.622371e+00
-1.603847e+00
-1.710177e+00
-1.935621e+00
-2.269105e+00
-2.696598e+00
-3.000000e+00
-3.000000e+00
-3.000000e+00
-3.000000e+00
-3.000000e+00
-3.000000e+00
-3.000000e+00
-3.000000e+00
-3.000000e+00
-2.781808e+00
-2.680428e+00
-2.686487e+00
-2.799735e+00
-3.000000e+00
-3.000000e+00
-3.000000e+00
-3.000000e+00
-3.000000e+00
-3.000000e+00
-3.000000e+00
-3.000000e+00
-3.000000e+00
-3.000000e+00
-3.000000e+00
-3.000000e+00
-3.000000e+00
-3.000000e+00
-3.000000e+00
-3.000000e+00
-3.000000e+00
-3.000000e+00
-3.000000e+00
-3.000000e+00
-3.000000e+00
-3.000000e+00
-3.000000e+00
-3.000000e+00
-3.000000e+00
-3.000000e+00
-3.000000e+00
-3.000000e+00
-3.000000e+00
-3.000000e+00
-3.000000e+00
-3.000000e+00
-3.000000e+00
-3.000000e+00
-3.000000e+00
-3.000000e+00
-3.000000e+00
-3.000000e+00
-3.000000e+00
-3.000000e+00
-3.000000e+00
-3.000000e+00
-3.000000e+00
-3.000000e+00
-3.000000e+00
-3.000000e+00
-3.000000e+00
-3.000000e+00
-3.000000e+00
-3.000000e+00
-3.000000e+00
-3.000000e+00
-3.000000e+00
-3.000000e+00
-3.000000e+00
-3.000000e+00
-3.000000e+00
-3.000000e+00
-3.000000e+00
-3.000000e+00
-3.000000e+00
-3.000000e+00
-3.000000e+00
-3.000000e+00
-3.000000e+00
-3.000000e+00
-3.000000e+00
-3.000000e+00
-3.000000e+00
-3.000000e+00
-3.000000e+00
-3.000000e+00
-3.000000e+00
-3.000000e+00
-3.000000e+00
-3.000000e+00
-3.000000e+00
-3.000000e+00
-3.000000e+00
-3.000000e+00
-3.000000e+00
-3.000000e+00
-3.000000e+00
-3.000000e+00
-3.000000e+00
-3.000000e+00
-3.000000e+00
-3.000000e+00
-3.000000e+00
-3.000000e+00
-3.000000e+00
-3.000000e+00
-3.000000e+00
-3.000000e+00
-3.000000e+00
-3.000000e+00
-3.000000e+00
-3.000000e+00
-3.000000e+00
-3.000000e+00
-3.000000e+00
8.907723e-01
6.120586e-02
-7.929525e-01
-1.662251e+00
-2.541457e+00
-3.000000e+00
-3.000000e+00
-3.000000e+00
-3.000000e+00
-3.000000e+00
-3.000000e+00
-3.000000e+00
-3.000000e+00
-3.000000e+00
-3.000000e+00
1.958716e+00
1.071543e+00
1.753950e-01
-7.255168e-01
-1.629249e+00
-2.534789e+00
-3.000000e+00
-3.000000e+00
-3.000000e+00
-3.000000e+00
-3.000000e+00
-3.000000e+00
-3.000000e+00
-3.000000e+00
-3.000000e+00
2.770161e+00
1.864244e+00
9.559374e-01
4.655695e-02
-8.633976e-01
-1.773695e+00
-2.684215e+00
-3.000000e+00
-3.000000e+00
-3.000000e+00
-3.000000e+00
-3.000000e+00
-3.000000e+00
-3.000000e+00
-3.000000e+00
2.986531e+00
2.244591e+00
1.423525e+00
5.670824e-01
-3.076382e-01
-1.192897e+00
-2.084744e+00
-2.980972e+00
-3.000000e+00
-3.000000e+00
-3.000000e+00
-3.000000e+00
-3.000000e+00
-3.000000e+00
-3.000000e+00
2.451462e+00
2.048612e+00
1.452181e+00
7.427673e-01
-3.207016e-02
-8.463755e-01
-1.685743e+00
-2.541811e+00
-3.000000e+00
-3.000000e+00
-3.000000e+00
-3.000000e+00
-3.000000e+00
-3.000000e+00
-3.000000e+00
1.493557e+00
1.368442e+00
1.032384e+00
5.327396e-01
-8.247423e-02
-7.764478e-01
-1.524096e+00
-2.308968e+00
-3.000000e+00
-3.000000e+00
-3.000000e+00
-3.000000e+00
-3.000000e+00
-3.000000e+00
-3.000000e+00
3.681169e-01
4.147139e-01
2.823701e-01
-1.476860e-02
-4.498124e-01
-9.928036e-01
-1.617221e+00
-2.302206e+00
-3.000000e+00
-3.000000e+00
-3.000000e+00
-3.000000e+00
-3.000000e+00
-3.000000e+00
-3.000000e+00
-8.286066e-01
-6.763186e-01
-6.682630e-01
-8.050408e-01
-1.076881e+00
-1.466773e+00
-1.954891e+00
-2.522136e+00
-3.000000e+00
-3.000000e+00
-3.000000e+00
-3.000000e+00
-3.000000e+00
-3.000000e+00
-3.000000e+00
-2.060459e+00
-1.839258e+00
-1.735094e+00
-1.753386e+00
-1.893158e+00
-2.147288e+00
-2.504166e+00
-2.949966e+00
-3.000000e+00
-3.000000e+00
-3.000000e+00
-3.000000e+00
-3.000000e+00
-3.000000e+00
-3.000000e+00
-3.000000e+00
-3.000000e+00
-2.871016e+00
-2.802373e+00
-2.839763e+00
-2.981691e+00
-3.000000e+00
-3.000000e+00
-3.000000e+00
-3.000000e+00
-3.000000e+00
-3.000000e+00
-3.000000e+00
-3.000000e+00
-3.000000e+00
-3.000000e+00
-3.000000e+00
-3.000000e+00
-3.000000e+00
-3.000000e+00
-3.000000e+00
-3.000000e+00
-3.000000e+00
-3.000000e+00
-3.000000e+00
-3.000000e+00
-3.000000e+00
-3.000000e+00
-3.000000e+00
-3.000000e+00
-3.000000e+00
-3.000000e+00
-3.000000e+00
-3.000000e+00
-3.000000e+00
-3.000000e+00
-3.000000e+00
-3.000000e+00
-3.000000e+00
-3.000000e+00
-3.000000e+00
-3.000000e+00
-3.000000e+00
-3.000000e+00
-3.000000e+00
-3.000000e+00
-3.000000e+00
-3.000000e+00
-3.000000e+00
-3.000000e+00
-3.000000e+00
-3.000000e+00
-3.000000e+00
-3.000000e+00
-3.000000e+00
-3.000000e+00
-3.000000e+00
-3.000000e+00
-3.000000e+00
-3.000000e+00
-3.000000e+00
-3.000000e+00
-3.000000e+00
-3.000000e+00
-3.000000e+00
-3.000000e+00
-3.000000e+00
-3.000000e+00
-3.000000e+00
-3.000000e+00
-3.000000e+00
-3.000000e+00
-3.000000e+00
-3.000000e+00
-3.000000e+00
-3.000000e+00
-3.000000e+00
-3.000000e+00
-3.000000e+00
-3.000000e+00
-3.000000e+00
-3.000000e+00
-3.000000e+00
-3.000000e+00
-3.000000e+00
-3.000000e+00
-3.000000e+00
-3.000000e+00
-3.000000e+00
-3.000000e+00
1.011359e+00
3.193879e-01
-4.376173e-01
-1.236018e+00
-2.061787e+00
-2.906354e+00
-3.000000e+00
-3.000000e+00
-3.000000e+00
-3.000000e+00
-3.000000e+00
-3.000000e+00
-3.000000e+00
-3.000000e+00
-3.000000e+00
2.270603e+00
1.517773e+00
7.031541e-01
-1.439819e-01
-1.009900e+00
-1.887520e+00
-2.772879e+00
-3.000000e+00
-3.000000e+00
-3.000000e+00
-3.000000e+00
-3.000000e+00
-3.000000e+00
-3.000000e+00
-3.000000e+00
3.000000e+00
2.611948e+00
1.726286e+00
8.295927e-01
-7.228470e-02
-9.770002e-01
-1.883435e+00
-2.790988e+00
-3.000000e+00
-3.000000e+00
-3.000000e+00
-3.000000e+00
-3.000000e+00
-3.000000e+00
-3.000000e+00
3.000000e+00
3.000000e+00
2.483926e+00
1.581938e+00
6.760716e-01
-2.316575e-01
-1.140424e+00
-2.049827e+00
-2.959648e+00
-3.000000e+00
-3.000000e+00
-3.000000e+00
-3.000000e+00
-3.000000e+00
-3.000000e+00
3.000000e+00
3.000000e+00
2.697140e+00
1.944986e+00
1.123952e+00
2.697716e-01
-6.024156e-01
-1.485348e+00
-2.375169e+00
-3.000000e+00
-3.000000e+00
-3.000000e+00
-3.000000e+00
-3.000000e+00
-3.000000e+00
2.316329e+00
2.433269e+00
2.236886e+00
1.784074e+00
1.164606e+00
4.459920e-01
-3.318300e-01
-1.146424e+00
-1.984935e+00
-2.839694e+00
-3.000000e+00
-3.000000e+00
-3.000000e+00
-3.000000e+00
-3.000000e+00
1.058176e+00
1.311989e+00
1.349582e+00
1.164591e+00
7.862306e-01
2.605882e-01
-3.692541e-01
-1.070949e+00
-1.822363e+00
-2.608781e+00
-3.000000e+00
-3.000000e+00
-3.000000e+00
-3.000000e+00
-3.000000e+00
-2.185225e-01
1.036892e-01
2.697344e-01
2.631602e-01
8.465958e-02
-2.482548e-01
-7.086306e-01
-1.268447e+00
-1.903556e+00
-2.595091e+00
-3.000000e+00
-3.000000e+00
-3.000000e+00
-3.000000e+00
-3.000000e+00
-1.502853e+00
-1.140472e+00
-8.978286e-01
-7.899957e-01
-8.244658e-01
-9.987864e-01
-1.301361e+00
-1.714875e+00
-2.220292e+00
-2.799768e+00
-3.000000e+00
-3.000000e+00
-3.000000e+00
-3.000000e+00
-3.000000e+00
-2.791041e+00
-2.402436e+00
-2.110026e+00
-1.926006e+00
-1.859107e+00
-1.912727e+00
-2.084133e+00
-2.365104e+00
-2.743724e+00
-3.000000e+00
-3.000000e+00
-3.000000e+00
-3.000000e+00
-3.000000e+00
-3.000000e+00
-3.000000e+00
-3.000000e+00
-3.000000e+00
-3.000000e+00
-2.970533e+00
-2.933806e+00
-3.000000e+00
-3.000000e+00
-3.000000e+00
-3.000000e+00
-3.000000e+00
-3.000000e+00
-3.000000e+00
-3.000000e+00
-3.000000e+00
-3.000000e+00
-3.000000e+00
-3.000000e+00
-3.000000e+00
-3.000000e+00
-3.000000e+00
-3.000000e+00
-3.000000e+00
-3.000000e+00
-3.000000e+00
-3.000000e+00
-3.000000e+00
-3.000000e+00
-3.000000e+00
-3.000000e+00
-3.000000e+00
-3.000000e+00
-3.000000e+00
-3.000000e+00
-3.000000e+00
-3.000000e+00
-3.000000e+00
-3.000000e+00
-3.000000e+00
-3.000000e+00
-3.000000e+00
-3.000000e+00
-3.000000e+00
-3.000000e+00
-3.000000e+00
-3.000000e+00
-3.000000e+00
-3.000000e+00
-3.000000e+00
-3.000000e+00
-3.000000e+00
-3.000000e+00
-3.000000e+00
-3.000000e+00
-3.000000e+00
-3.000000e+00
-3.000000e+00
-3.000000e+00
-3.000000e+00
-3.000000e+00
-3.000000e+00
-3.000000e+00
-3.000000e+00
-3.000000e+00
-3.000000e+00
-3.000000e+00
-3.000000e+00
-3.000000e+00
-3.000000e+00
-3.000000e+00
-3.000000e+00
-3.000000e+00
-3.000000e+00
-3.000000e+00
-3.000000e+00
7.483840e-01
2.494164e-01
-3.591547e-01
-1.044312e+00
-1.782887e+00
-2.559240e+00
-3.000000e+00
-3.000000e+00
-3.000000e+00
-3.000000e+00
-3.000000e+00
-3.000000e+00
-3.000000e+00
-3.000000e+00
-3.000000e+00
2.034655e+00
1.541314e+00
9.021435e-01
1.747503e-01
-6.066318e-01
-1.422327e+00
-2.260781e+00
-3.000000e+00
-3.000000e+00
-3.000000e+00
-3.000000e+00
-3.000000e+00
-3.000000e+00
-3.000000e+00
-3.000000e+00
3.000000e+00
2.828344e+00
2.132346e+00
1.340564e+00
5.033140e-01
-3.581324e-01
-1.233752e+00
-2.118316e+00
-3.000000e+00
-3.000000e+00
-3.000000e+00
-3.000000e+00
-3.000000e+00
-3.000000e+00
-3.000000e+00
3.000000e+00
3.000000e+00
3.000000e+00
2.381029e+00
1.483588e+00
5.804996e-01
-3.253627e-01
-1.232790e+00
-2.141187e+00
-3.000000e+00
-3.000000e+00
-3.000000e+00
-3.000000e+00
-3.000000e+00
-3.000000e+00
3.000000e+00
3.000000e+00
3.000000e+00
3.000000e+00
2.194785e+00
1.296827e+00
3.936543e-01
-5.121722e-01
-1.419528e+00
-2.327847e+00
-3.000000e+00
-3.000000e+00
-3.000000e+00
-3.000000e+00
-3.000000e+00
2.708163e+00
3.000000e+00
3.000000e+00
3.000000e+00
2.405309e+00
1.645286e+00
8.243003e-01
-2.787352e-02
-8.977327e-01
-1.778471e+00
-2.666340e+00
-3.000000e+00
-3.000000e+00
-3.000000e+00
-3.000000e+00
1.427174e+00
1.946891e+00
2.254360e+00
2.276714e+00
2.007556e+00
1.513766e+00
8.752432e-01
1.488042e-01
-6.316304e-01
-1.446480e+00
-2.284205e+00
-3.000000e+00
-3.000000e+00
-3.000000e+00
-3.000000e+00
1.382332e-01
6.559706e-01
1.029472e+00
1.215787e+00
1.187373e+00
9.487453e-01
5.334702e-01
-1.475763e-02
-6.574187e-01
-1.365976e+00
-2.120787e+00
-2.908618e+00
-3.000000e+00
-3.000000e+00
-3.000000e+00
-1.153665e+00
-6.372709e-01
-2.297945e-01
4.183960e-02
1.547298e-01
9.789705e-02
-1.230130e-01
-4.882236e-01
-9.713163e-01
-1.546244e+00
-2.191015e+00
-2.888521e+00
-3.000000e+00
-3.000000e+00
-3.000000e+00
-2.446979e+00
-1.931534e+00
-1.503501e+00
-1.181064e+00
-9.813271e-01
-9.167275e-01
-9.916391e-01
-1.201008e+00
-1.531918e+00
-1.967072e+00
-2.488317e+00
-3.000000e+00
-3.000000e+00
-3.000000e+00
-3.000000e+00
-3.000000e+00
-3.000000e+00
-2.784561e+00
-2.428787e+00
-2.171820e+00
-2.024516e+00
-1.993807e+00
-2.081210e+00
-2.282473e+00
-2.588542e+00
-2.987377e+00
-3.000000e+00
-3.000000e+00
-3.000000e+00
-3.000000e+00
-3.000000e+00
-3.000000e+00
-3.000000e+00
-3.000000e+00
-3.000000e+00
-3.000000e+00
-3.000000e+00
-3.000000e+00
-3.000000e+00
-3.000000e+00
-3.000000e+00
-3.000000e+00
-3.000000e+00
-3.000000e+00
-3.000000e+00
-3.000000e+00
-3.000000e+00
-3.000000e+00
-3.000000e+00
-3.000000e+00
-3.000000e+00
-3.000000e+00
-3.000000e+00
-3.000000e+00
-3.000000e+00
-3.000000e+00
-3.000000e+00
-3.000000e+00
-3.000000e+00
-3.000000e+00
-3.000000e+00
-3.000000e+00
-3.000000e+00
-3.000000e+00
-3.000000e+00
-3.000000e+00
-3.000000e+00
-3.000000e+00
-3.000000e+00
-3.000000e+00
-3.000000e+00
-3.000000e+00
-3.000000e+00
-3.000000e+00
-3.000000e+00
-3.000000e+00
-3.000000e+00
-3.000000e+00
-3.000000e+00
-3.000000e+00
-3.000000e+00
-3.000000e+00
-3.000000e+00
-3.000000e+00
-3.000000e+00
-3.000000e+00
-3.000000e+00
-3.000000e+00
-3.000000e+00
-3.000000e+00
1.640210e-01
-1.353126e-01
-5.692792e-01
-1.109253e+00
-1.729768e+00
-2.410617e+00
-3.000000e+00
-3.000000e+00
-3.000000e+00
-3.000000e+00
-3.000000e+00
-3.000000e+00
-3.000000e+00
-3.000000e+00
-3.000000e+00
1.355769e+00
1.134435e+00
7.261901e-01
1.782789e-01
-4.674683e-01
-1.180463e+00
-1.940008e+00
-2.732398e+00
-3.000000e+00
-3.000000e+00
-3.000000e+00
-3.000000e+00
-3.000000e+00
-3.000000e+00
-3.000000e+00
2.443977e+00
2.378387e+00
2.021218e+00
1.459645e+00
7.743917e-01
1.621580e-02
-7.862873e-01
-1.617009e+00
-2.466539e+00
-3.000000e+00
-3.000000e+00
-3.000000e+00
-3.000000e+00
-3.000000e+00
-3.000000e+00
3.000000e+00
3.000000e+00
3.000000e+00
2.724402e+00
1.970573e+00
1.148093e+00
2.928104e-01
-5.802116e-01
-1.463789e+00
-2.354119e+00
-3.000000e+00
-3.000000e+00
-3.000000e+00
-3.000000e+00
-3.000000e+00
3.000000e+00
3.000000e+00
3.000000e+00
3.000000e+00
3.000000e+00
2.137242e+00
1.232606e+00
3.254075e-01
-5.831046e-01
-1.492379e+00
-2.402134e+00
-3.000000e+00
-3.000000e+00
-3.000000e+00
-3.000000e+00
2.461022e+00
3.000000e+00
3.000000e+00
3.000000e+00
3.000000e+00
2.783541e+00
1.903552e+00
1.009514e+00
1.091261e-01
-7.946525e-01
-1.700450e+00
-2.607545e+00
-3.000000e+00
-3.000000e+00
-3.000000e+00
1.375683e+00
2.139057e+00
2.787535e+00
3.000000e+00
3.000000e+00
2.766370e+00
2.111777e+00
1.345516e+00
5.245843e-01
-3.257985e-01
-1.193512e+00
-2.072181e+00
-2.958176e+00
-3.000000e+00
-3.000000e+00
1.850176e-01
8.877249e-01
1.493116e+00
1.942820e+00
2.161840e+00
2.097480e+00
1.766614e+00
1.238932e+00
5.844417e-01
-1.487250e-01
-9.314637e-01
-1.746542e+00
-2.583540e+00
-3.000000e+00
-3.000000e+00
-1.049095e+00
-3.847685e-01
1.978559e-01
6.657028e-01
9.785137e-01
1.098813e+00
1.009154e+00
7.227201e-01
2.751637e-01
-2.927985e-01
-9.467669e-01
-1.661459e+00
-2.419348e+00
-3.000000e+00
-3.000000e+00
-2.304666e+00
-1.666314e+00
-1.097708e+00
-6.200547e-01
-2.581997e-01
-3.716183e-02
2.425671e-02
-7.973623e-02
-3.394856e-01
-7.338619e-01
-1.237381e+00
-1.825933e+00
-2.479470e+00
-3.000000e+00
-3.000000e+00
-3.000000e+00
-2.952540e+00
-2.393416e+00
-1.909632e+00
-1.517982e+00
-1.235853e+00
-1.078512e+00
-1.055694e+00
-1.168893e+00
-1.410908e+00
-1.767933e+00
-2.222933e+00
-2.758693e+00
-3.000000e+00
-3.000000e+00
-3.000000e+00
-3.000000e+00
-3.000000e+00
-3.000000e+00
-2.789648e+00
-2.467115e+00
-2.245529e+00
-2.134300e+00
-2.138591e+00
-2.258196e+00
-2.487591e+00
-2.817116e+00
-3.000000e+00
-3.000000e+00
-3.000000e+00
-3.000000e+00
-3.000000e+00
-3.000000e+00
-3.000000e+00
-3.000000e+00
-3.000000e+00
-3.000000e+00
-3.000000e+00
-3.000000e+00
-3.000000e+00
-3.000000e+00
-3.000000e+00
-3.000000e+00
-3.000000e+00
-3.000000e+00
-3.000000e+00
-3.000000e+00
-3.000000e+00
-3.000000e+00
-3.000000e+00
-3.000000e+00
-3.000000e+00
-3.000000e+00
-3.000000e+00
-3.000000e+00
-3.000000e+00
-3.000000e+00
-3.000000e+00
-3.000000e+00
-3.000000e+00
-3.000000e+00
-3.000000e+00
-3.000000e+00
-3.000000e+00
-3.000000e+00
-3.000000e+00
-3.000000e+00
-3.000000e+00
-3.000000e+00
-3.000000e+00
-3.000000e+00
-3.000000e+00
-3.000000e+00
-3.000000e+00
-3.000000e+00
-6.427507e-01
-7.722006e-01
-1.037936e+00
-1.423062e+00
-1.907638e+00
-2.472341e+00
-3.000000e+00
-3.000000e+00
-3.000000e+00
-3.000000e+00
-3.000000e+00
-3.000000e+00
-3.000000e+00
-3.000000e+00
-3.000000e+00
4.271412e-01
4.102130e-01
2.164927e-01
-1.340456e-01
-6.120925e-01
-1.188168e+00
-1.837540e+00
-2.541296e+00
-3.000000e+00
-3.000000e+00
-3.000000e+00
-3.000000e+00
-3.000000e+00
-3.000000e+00
-3.000000e+00
1.347527e+00
1.511003e+00
1.441022e+00
1.150294e+00
6.831923e-01
8.979654e-02
-5.898170e-01
-1.327929e+00
-2.106336e+00
-2.913155e+00
-3.000000e+00
-3.000000e+00
-3.000000e+00
-3.000000e+00
-3.000000e+00
1.978545e+00
2.423343e+00
2.589644e+00
2.422957e+00
1.977885e+00
1.355021e+00
6.297302e-01
-1.549320e-01
-9.756236e-01
-1.819348e+00
-2.678517e+00
-3.000000e+00
-3.000000e+00
-3.000000e+00
-3.000000e+00
2.123035e+00
2.887104e+00
3.000000e+00
3.000000e+00
3.000000e+00
2.587375e+00
1.788837e+00
9.425297e-01
7.300901e-02
-8.093123e-01
-1.699377e+00
-2.594463e+00
-3.000000e+00
-3.000000e+00
-3.000000e+00
1.716133e+00
2.623319e+00
3.000000e+00
3.000000e+00
3.000000e+00
3.000000e+00
2.790251e+00
1.883605e+00
9.748883e-01
6.524372e-02
-8.448944e-01
-1.755326e+00
-2.665949e+00
-3.000000e+00
-3.000000e+00
9.195914e-01
1.807510e+00
2.677300e+00
3.000000e+00
3.000000e+00
3.000000e+00
3.000000e+00
2.486063e+00
1.610765e+00
7.204404e-01
-1.771655e-01
-1.078825e+00
-1.982971e+00
-2.888747e+00
-3.000000e+00
-8.672857e-02
7.462378e-01
1.539528e+00
2.258483e+00
2.827985e+00
3.000000e+00
2.974373e+00
2.492622e+00
1.817012e+00
1.045691e+00
2.248149e-01
-6.239576e-01
-1.489690e+00
-2.366409e+00
-3.000000e+00
-1.201531e+00
-4.181271e-01
3.187718e-01
9.834867e-01
1.534233e+00
1.909469e+00
2.041637e+00
1.899496e+00
1.516465e+00
9.604955e-01
2.924685e-01
-4.465394e-01
-1.231325e+00
-2.046610e+00
-2.882938e+00
-2.375790e+00
-1.631502e+00
-9.339733e-01
-3.016930e-01
2.392707e-01
6.546783e-01
9.061298e-01
9.628706e-01
8.169708e-01
4.880452e-01
1.217175e-02
-5.731311e-01
-1.237134e+00
-1.957340e+00
-2.718030e+00
-3.000000e+00
-2.871254e+00
-2.202035e+00
-1.591103e+00
-1.056125e+00
-6.188397e-01
-3.034654e-01
-1.325245e-01
-1.205039e-01
-2.684903e-01
-5.637317e-01
-9.844718e-01
-1.506412e+00
-2.107288e+00
-2.768809e+00
-3.000000e+00
-3.000000e+00
-3.000000e+00
-2.882666e+00
-2.351726e+00
-1.900724e+00
-1.546206e+00
-1.304468e+00
-1.188739e+00
-1.206073e+00
-1.355383e+00
-1.627753e+00
-2.008854e+00
-2.482086e+00
-3.000000e+00
-3.000000e+00
-3.000000e+00
-3.000000e+00
-3.000000e+00
-3.000000e+00
-3.000000e+00
-2.806278e+00
-2.517241e+00
-2.330793e+00
-2.254847e+00
-2.292859e+00
-2.443080e+00
-2.698947e+00
-3.000000e+00
-3.000000e+00
-3.000000e+00
-3.000000e+00
-3.000000e+00
-3.000000e+00
-3.000000e+00
-3.000000e+00
-3.000000e+00
-3.000000e+00
-3.000000e+00
-3.000000e+00
-3.000000e+00
-3.000000e+00
-3.000000e+00
-3.000000e+00
-3.000000e+00
-3.000000e+00
-3.000000e+00
-3.000000e+00
-3.000000e+00
-3.000000e+00
-3.000000e+00
-3.000000e+00
-3.000000e+00
-3.000000e+00
-3.000000e+00
-3.000000e+00
-3.000000e+00
-3.000000e+00
-3.000000e+00
-3.000000e+00
-1.590752e+00
-1.588523e+00
-1.711181e+00
-1.952118e+00
-2.299630e+00
-2.739377e+00
-3.000000e+00
-3.000000e+00
-3.000000e+00
-3.000000e+00
-3.000000e+00
-3.000000e+00
-3.000000e+00
-3.000000e+00
-3.000000e+00
-6.289535e-01
-5.075560e-01
-5.355134e-01
-7.106328e-01
-1.020084e+00
-1.444549e+00
-1.963022e+00
-2.556178e+00
-3.000000e+00
-3.000000e+00
-3.000000e+00
-3.000000e+00
-3.000000e+00
-3.000000e+00
-3.000000e+00
1.738906e-01
4.594254e-01
5.724745e-01
5.000191e-01
2.505407e-01
-1.502976e-01
-6.704903e-01
-1.280449e+00
-1.956601e+00
-2.681487e+00
-3.000000e+00
-3.000000e+00
-3.000000e+00
-3.000000e+00
-3.000000e+00
7.272201e-01
1.223816e+00
1.547007e+00
1.646280e+00
1.502516e+00
1.142794e+00
6.200051e-01
-1.511288e-02
-7.252994e-01
-1.485940e+00
-2.281241e+00
-3.000000e+00
-3.000000e+00
-3.000000e+00
-3.000000e+00
9.280119e-01
1.644196e+00
2.242746e+00
2.632692e+00
2.705106e+00
2.432978e+00
1.905916e+00
1.229352e+00
4.697785e-01
-3.374815e-01
-1.173750e+00
-2.028681e+00
-2.896214e+00
-3.000000e+00
-3.000000e+00
7.262869e-01
1.590837e+00
2.423017e+00
3.000000e+00
3.000000e+00
3.000000e+00
3.000000e+00
2.422534e+00
1.590326e+00
7.257628e-01
-1.549025e-01
-1.044634e+00
-1.939948e+00
-2.838932e+00
-3.000000e+00
1.722403e-01
1.083055e+00
1.993615e+00
2.903596e+00
3.000000e+00
3.000000e+00
3.000000e+00
3.000000e+00
2.532622e+00
1.622336e+00
7.116485e-01
-1.992283e-01
-1.110211e+00
-2.021258e+00
-2.932348e+00
-6.310759e-01
2.648501e-01
1.153578e+00
2.028645e+00
2.873120e+00
3.000000e+00
3.000000e+00
3.000000e+00
3.000000e+00
2.188020e+00
1.316795e+00
4.299397e-01
-4.649405e-01
-1.364463e+00
-2.266903e+00
-1.593170e+00
-7.323599e-01
1.101446e-01
9.229789e-01
1.684249e+00
2.349153e+00
2.827339e+00
2.981435e+00
2.744022e+00
2.213434e+00
1.521329e+00
7.458224e-01
-7.499599e-02
-9.223161e-01
-1.786218e+00
-2.654403e+00
-1.830620e+00
-1.032042e+00
-2.701397e-01
4.366794e-01
1.058667e+00
1.549637e+00
1.847765e+00
1.896962e+00
1.686122e+00
1.258955e+00
6.791534e-01
-4.706383e-04
-7.445960e-01
-1.531213e+00
-3.000000e+00
-2.988358e+00
-2.226303e+00
-1.502749e+00
-8.320403e-01
-2.345328e-01
2.619982e-01
6.230526e-01
8.134313e-01
8.098059e-01
6.126561e-01
2.459998e-01
-2.548018e-01
-8.554282e-01
-1.528387e+00
-3.000000e+00
-3.000000e+00
-3.000000e+00
-2.756044e+00
-2.110597e+00
-1.528834e+00
-1.029214e+00
-6.336360e-01
-3.651628e-01
-2.433553e-01
-2.783771e-01
-4.672136e-01
-7.948489e-01
-1.239455e+00
-1.778054e+00
-3.000000e+00
-3.000000e+00
-3.000000e+00
-3.000000e+00
-3.000000e+00
-2.823689e+00
-2.322110e+00
-1.904864e+00
-1.587997e+00
-1.386465e+00
-1.311327e+00
-1.367059e+00
-1.550323e+00
-1.850889e+00
-2.254193e+00
-3.000000e+00
-3.000000e+00
-3.000000e+00
-3.000000e+00
-3.000000e+00
-3.000000e+00
-3.000000e+00
-3.000000e+00
-2.834382e+00
-2.578931e+00
-2.427216e+00
-2.385632e+00
-2.456022e+00
-2.635290e+00
-2.916043e+00
-3.000000e+00
-3.000000e+00
-3.000000e+00
-3.000000e+00
-3.000000e+00
-3.000000e+00
-3.000000e+00
-3.000000e+00
-3.000000e+00
-3.000000e+00
-3.000000e+00
-3.000000e+00
-3.000000e+00
-3.000000e+00
-3.000000e+00
-2.627511e+00
-2.526118e+00
-2.534368e+00
-2.651904e+00
-2.873832e+00
-3.000000e+00
-3.000000e+00
-3.000000e+00
-3.000000e+00
-3.000000e+00
-3.000000e+00
-3.000000e+00
-3.000000e+00
-3.000000e+00
-3.000000e+00
-1.752975e+00
-1.537865e+00
-1.445569e+00
-1.481334e+00
-1.643097e+00
-1.922027e+00
-2.304715e+00
-2.775857e+00
-3.000000e+00
-3.000000e+00
-3.000000e+00
-3.000000e+00
-3.000000e+00
-3.000000e+00
-3.000000e+00
-1.032047e+00
-6.748571e-01
-4.482207e-01
-3.686962e-01
-4.427357e-01
-6.643195e-01
-1.017170e+00
-1.479881e+00
-2.030794e+00
-2.650878e+00
-3.000000e+00
-3.000000e+00
-3.000000e+00
-3.000000e+00
-3.000000e+00
-5.251780e-01
-2.344131e-03
3.978291e-01
6.414227e-01
7.017341e-01
5.712681e-01
2.657704e-01
-1.839046e-01
-7.439966e-01
-1.385515e+00
-2.086381e+00
-2.830676e+00
-3.000000e+00
-3.000000e+00
-3.000000e+00
-2.942147e-01
3.954377e-01
9.955082e-01
1.460142e+00
1.731067e+00
1.759333e+00
1.538987e+00
1.112072e+00
5.374846e-01
-1.354437e-01
-8.730063e-01
-1.653744e+00
-2.464119e+00
-3.000000e+00
-3.000000e+00
-3.748431e-01
4.459195e-01
1.224945e+00
1.930291e+00
2.498828e+00
2.820712e+00
2.785635e+00
2.408048e+00
1.807242e+00
1.084663e+00
2.960954e-01
-5.303025e-01
-1.379848e+00
-2.244401e+00
-3.000000e+00
-7.539787e-01
1.382718e-01
1.021906e+00
1.889577e+00
2.722960e+00
3.000000e+00
3.000000e+00
3.000000e+00
3.000000e+00
2.234848e+00
1.377798e+00
4.994111e-01
-3.898926e-01
-1.285481e+00
-2.185003e+00
-1.378614e+00
-4.673834e-01
4.438472e-01
1.355078e+00
2.266308e+00
3.000000e+00
3.000000e+00
3.000000e+00
3.000000e+00
3.000000e+00
2.266308e+00
1.355078e+00
4.438472e-01
-4.673834e-01
-1.378614e+00
-2.185004e+00
-1.285481e+00
-3.898931e-01
4.994106e-01
1.377799e+00
2.234849e+00
3.000000e+00
3.000000e+00
3.000000e+00
3.000000e+00
2.722960e+00
1.889577e+00
1.021907e+00
1.382713e-01
-7.539787e-01
-3.000000e+00
-2.244401e+00
-1.379849e+00
-5.303035e-01
2.960954e-01
1.084662e+00
1.807241e+00
2.408048e+00
2.785634e+00
2.820711e+00
2.498827e+00
1.930291e+00
1.224946e+00
4.459195e-01
-3.748431e-01
-3.000000e+00
-3.000000e+00
-2.464121e+00
-1.653744e+00
-8.730068e-01
-1.354446e-01
5.374837e-01
1.112071e+00
1.538985e+00
1.759331e+00
1.731067e+00
1.460141e+00
9.955082e-01
3.954377e-01
-2.942152e-01
-3.000000e+00
-3.000000e+00
-3.000000e+00
-2.830675e+00
-2.086381e+00
-1.385515e+00
-7.439961e-01
-1.839046e-01
2.657704e-01
5.712681e-01
7.017341e-01
6.414227e-01
3.978291e-01
-2.344131e-03
-5.251784e-01
-3.000000e+00
-3.000000e+00
-3.000000e+00
-3.000000e+00
-3.000000e+00
-2.650878e+00
-2.030793e+00
-1.479881e+00
-1.017171e+00
-6.643186e-01
-4.427342e-01
-3.686957e-01
-4.482207e-01
-6.748571e-01
-1.032047e+00
-3.000000e+00
-3.000000e+00
-3.000000e+00
-3.000000e+00
-3.000000e+00
-3.000000e+00
-3.000000e+00
-2.775857e+00
-2.304716e+00
-1.922027e+00
-1.643097e+00
-1.481335e+00
-1.445568e+00
-1.537865e+00
-1.752976e+00
-3.000000e+00
-3.000000e+00
-3.000000e+00
-3.000000e+00
-3.000000e+00
-3.000000e+00
-3.000000e+00
-3.000000e+00
-3.000000e+00
-3.000000e+00
-2.873833e+00
-2.651904e+00
-2.534369e+00
-2.526118e+00
-2.627510e+00
-3.000000e+00
-3.000000e+00
-3.000000e+00
-3.000000e+00
-3.000000e+00
-3.000000e+00
-3.000000e+00
-3.000000e+00
-3.000000e+00
-3.000000e+00
-3.000000e+00
-3.000000e+00
-3.000000e+00
-3.000000e+00
-3.000000e+00
-2.916044e+00
-2.635290e+00
-2.456022e+00
-2.385633e+00
-2.427215e+00
-2.578930e+00
-2.834382e+00
-3.000000e+00
-3.000000e+00
-3.000000e+00
-3.000000e+00
-3.000000e+00
-3.000000e+00
-3.000000e+00
-3.000000e+00
-2.254194e+00
-1.850888e+00
-1.550324e+00
-1.367059e+00
-1.311327e+00
-1.386465e+00
-1.587997e+00
-1.904865e+00
-2.322110e+00
-2.823689e+00
-3.000000e+00
-3.000000e+00
-3.000000e+00
-3.000000e+00
-3.000000e+00
-1.778055e+00
-1.239455e+00
-7.948489e-01
-4.672136e-01
-2.783771e-01
-2.433562e-01
-3.651633e-01
-6.336355e-01
-1.029214e+00
-1.528834e+00
-2.110598e+00
-2.756044e+00
-3.000000e+00
-3.000000e+00
-3.000000e+00
-1.528386e+00
-8.554277e-01
-2.548013e-01
2.459998e-01
6.126561e-01
8.098063e-01
8.134327e-01
6.230536e-01
2.619991e-01
-2.345328e-01
-8.320398e-01
-1.502748e+00
-2.226302e+00
-2.988357e+00
-3.000000e+00
-1.531213e+00
-7.445960e-01
-4.711151e-04
6.791525e-01
1.258956e+00
1.686124e+00
1.896963e+00
1.847767e+00
1.549638e+00
1.058667e+00
4.366798e-01
-2.701383e-01
-1.032040e+00
-1.830618e+00
-2.654401e+00
-1.786218e+00
-9.223161e-01
-7.499599e-02
7.458224e-01
1.521329e+00
2.213434e+00
2.744022e+00
2.981435e+00
2.827339e+00
2.349153e+00
1.684249e+00
9.229789e-01
1.101446e-01
-7.323599e-01
-1.593170e+00
-2.266904e+00
-1.364463e+00
-4.649410e-01
4.299397e-01
1.316795e+00
2.188020e+00
3.000000e+00
3.000000e+00
3.000000e+00
3.000000e+00
2.873119e+00
2.028645e+00
1.153579e+00
2.648497e-01
-6.310759e-01
-2.932348e+00
-2.021259e+00
-1.110211e+00
-1.992283e-01
7.116489e-01
1.622337e+00
2.532622e+00
3.000000e+00
3.000000e+00
3.000000e+00
3.000000e+00
2.903596e+00
1.993616e+00
1.083055e+00
1.722403e-01
-3.000000e+00
-2.838932e+00
-1.939949e+00
-1.044635e+00
-1.549025e-01
7.257624e-01
1.590326e+00
2.422534e+00
3.000000e+00
3.000000e+00
3.000000e+00
3.000000e+00
2.423017e+00
1.590838e+00
7.262874e-01
-3.000000e+00
-3.000000e+00
-2.896215e+00
-2.028682e+00
-1.173749e+00
-3.374829e-01
4.697771e-01
1.229351e+00
1.905915e+00
2.432977e+00
2.705106e+00
2.632691e+00
2.242747e+00
1.644196e+00
9.280119e-01
-3.000000e+00
-3.000000e+00
-3.000000e+00
-3.000000e+00
-2.281241e+00
-1.485940e+00
-7.252994e-01
-1.511335e-02
6.200047e-01
1.142795e+00
1.502516e+00
1.646280e+00
1.547007e+00
1.223816e+00
7.272196e-01
-3.000000e+00
-3.000000e+00
-3.000000e+00
-3.000000e+00
-3.000000e+00
-2.681486e+00
-1.956600e+00
-1.280448e+00
-6.704898e-01
-1.502972e-01
2.505417e-01
5.000196e-01
5.724750e-01
4.594254e-01
1.738906e-01
-3.000000e+00
-3.000000e+00
-3.000000e+00
-3.000000e+00
-3.000000e+00
-3.000000e+00
-3.000000e+00
-2.556178e+00
-1.963022e+00
-1.444549e+00
-1.020085e+00
-7.106328e-01
-5.355129e-01
-5.075555e-01
-6.289535e-01
-3.000000e+00
-3.000000e+00
-3.000000e+00
-3.000000e+00
-3.000000e+00
-3.000000e+00
-3.000000e+00
-3.000000e+00
-3.000000e+00
-2.739377e+00
-2.299630e+00
-1.952117e+00
-1.711181e+00
-1.588523e+00
-1.590753e+00
-3.000000e+00
-3.000000e+00
-3.000000e+00
-3.000000e+00
-3.000000e+00
-3.000000e+00
-3.000000e+00
-3.000000e+00
-3.000000e+00
-3.000000e+00
-3.000000e+00
-3.000000e+00
-3.000000e+00
-3.000000e+00
-3.000000e+00
-3.000000e+00
-3.000000e+00
-3.000000e+00
-3.000000e+00
-3.000000e+00
-3.000000e+00
-3.000000e+00
-3.000000e+00
-3.000000e+00
-3.000000e+00
-3.000000e+00
-3.000000e+00
-3.000000e+00
-3.000000e+00
-3.000000e+00
-3.000000e+00
-3.000000e+00
-2.698950e+00
-2.443081e+00
-2.292860e+00
-2.254849e+00
-2.330795e+00
-2.517241e+00
-2.806279e+00
-3.000000e+00
-3.000000e+00
-3.000000e+00
-3.000000e+00
-3.000000e+00
-3.000000e+00
-3.000000e+00
-2.482087e+00
-2.008854e+00
-1.627755e+00
-1.355384e+00
-1.206073e+00
-1.188739e+00
-1.304468e+00
-1.546206e+00
-1.900725e+00
-2.351726e+00
-2.882667e+00
-3.000000e+00
-3.000000e+00
-3.000000e+00
-2.768810e+00
-2.107290e+00
-1.506413e+00
-9.844728e-01
-5.637321e-01
-2.684903e-01
-1.205039e-01
-1.325245e-01
-3.034649e-01
-6.188397e-01
-1.056125e+00
-1.591102e+00
-2.202034e+00
-2.871253e+00
-3.000000e+00
-2.718031e+00
-1.957340e+00
-1.237135e+00
-5.731330e-01
1.217127e-02
4.880447e-01
8.169713e-01
9.628711e-01
9.061298e-01
6.546788e-01
2.392716e-01
-3.016925e-01
-9.339724e-01
-1.631501e+00
-2.375789e+00
-2.882939e+00
-2.046610e+00
-1.231326e+00
-4.465404e-01
2.924676e-01
9.604945e-01
1.516464e+00
1.899495e+00
2.041636e+00
1.909467e+00
1.534232e+00
9.834867e-01
3.187718e-01
-4.181271e-01
-1.201531e+00
-3.000000e+00
-2.366410e+00
-1.489692e+00
-6.239581e-01
2.248149e-01
1.045691e+00
1.817011e+00
2.492621e+00
2.974372e+00
3.000000e+00
2.827985e+00
2.258483e+00
1.539529e+00
7.462382e-01
-8.672762e-02
-3.000000e+00
-2.888747e+00
-1.982971e+00
-1.078825e+00