<?xml version="1.0"?>
<VTKFile byte_order="LittleEndian" version="1.0" type="ImageData">
<ImageData Origin="0.0000000000000000e+00 0.0000000000000000e+00 0.0000000000000000e+00" WholeExtent="0 29 0 29 0 29" Spacing="6.8965518474578857e-01 6.8965518474578857e-01 6.8965518474578857e-01">
<Piece Extent="0 29 0 29 0 29">
<PointData Scalars="wall">
<DataArray type="Float64" Name="wall" NumberOfComponents="1" format="ascii"/>-3.000000e+00
-3.000000e+00
-3.000000e+00
-3.000000e+00
-3.000000e+00
-3.000000e+00
-3.000000e+00
-3.000000e+00
-3.000000e+00
-3.000000e+00
-3.000000e+00
-3.000000e+00
-3.000000e+00
-3.000000e+00
-3.000000e+00
-3.000000e+00
-3.000000e+00
-3.000000e+00
-3.000000e+00
-3.000000e+00
-3.000000e+00
-3.000000e+00
-3.000000e+00
-3.000000e+00
-3.000000e+00
-3.000000e+00
-3.000000e+00
-3.000000e+00
-3.000000e+00
-3.000000e+00
-3.000000e+00
-3.000000e+00
-3.000000e+00
-3.000000e+00
-3.000000e+00
-3.000000e+00
-3.000000e+00
-3.000000e+00
-3.000000e+00
-3.000000e+00
-3.000000e+00
-3.000000e+00
-3.000000e+00
-3.000000e+00
-3.000000e+00
-3.000000e+00
-3.000000e+00
-3.000000e+00
-3.000000e+00
-3.000000e+00
-3.000000e+00
-3.000000e+00
-3.000000e+00
-3.000000e+00
-3.000000e+00
-3.000000e+00
-3.000000e+00
-3.000000e+00
-3.000000e+00
-3.000000e+00
-3.000000e+00
-3.000000e+00
-3.000000e+00
-3.000000e+00
-3.000000e+00
-3.000000e+00
-3.000000e+00
-3.000000e+00
-3.000000e+00
-3.000000e+00
-3.000000e+00
-3.000000e+00
-3.000000e+00
-3.000000e+00
-3.000000e+00
-3.000000e+00
-3.000000e+00
-3.000000e+00
-3.000000e+00
-3.000000e+00
-3.000000e+00
-3.000000e+00
-3.000000e+00
-3.000000e+00
-3.000000e+00
-3.000000e+00
-3.000000e+00
-3.000000e+00
-3.000000e+00
-3.000000e+00
-3.000000e+00
-3.000000e+00
-3.000000e+00
-3.000000e+00
-3.000000e+00
-3.000000e+00
-3.000000e+00
-3.000000e+00
-3.000000e+00
-3.000000e+00
-3.000000e+00
-3.000000e+00
-3.000000e+00
-3.000000e+00
-3.000000e+00
-3.000000e+00
-3.000000e+00
-3.000000e+00
-3.000000e+00
-3.000000e+00
-3.000000e+00
-3.000000e+00
-3.000000e+00
-3.000000e+00
-3.000000e+00
-3.000000e+00
-3.000000e+00
-3.000000e+00
-3.000000e+00
-3.000000e+00
-3.000000e+00
-3.000000e+00
-3.000000e+00
-3.000000e+00
-3.000000e+00
-3.000000e+00
-3.000000e+00
-3.000000e+00
-3.000000e+00
-3.000000e+00
-3.000000e+00
-3.000000e+00
-3.000000e+00
-3.000000e+00
-3.000000e+00
-3.000000e+00
-3.000000e+00
-3.000000e+00
-3.000000e+00
-3.000000e+00
-3.000000e+00
-3.000000e+00
-3.000000e+00
-3.000000e+00
-3.000000e+00
-3.000000e+00
-3.000000e+00
-3.000000e+00
-3.000000e+00
-3.000000e+00
-3.000000e+00
-3.000000e+00
-3.000000e+00
-3.000000e+00
-3.000000e+00
-3.000000e+00
-3.000000e+00
-3.000000e+00
-3.000000e+00
-3.000000e+00
-3.000000e+00
-3.000000e+00
-3.000000e+00
-3.000000e+00
-3.000000e+00
-3.000000e+00
-3.000000e+00
-3.000000e+00
-3.000000e+00
-3.000000e+00
-3.000000e+00
-3.000000e+00
-3.000000e+00
-3.000000e+00
-3.000000e+00
-3.000000e+00
-3.000000e+00
-3.000000e+00
-3.000000e+00
-3.000000e+00
-3.000000e+00
-3.000000e+00
-3.000000e+00
-3.000000e+00
-3.000000e+00
-3.000000e+00
-3.000000e+00
-3.000000e+00
-3.000000e+00
-3.000000e+00
-3.000000e+00
-3.000000e+00
-3.000000e+00
-3.000000e+00
-3.000000e+00
-3.000000e+00
-3.000000e+00
-3.000000e+00
-3.000000e+00
-3.000000e+00
-3.000000e+00
-3.000000e+00
-3.000000e+00
-3.000000e+00
-3.000000e+00
-3.000000e+00
-3.000000e+00
-3.000000e+00
-3.000000e+00
-3.000000e+00
-3.000000e+00
-3.000000e+00
-3.000000e+00
-3.000000e+00
-3.000000e+00
-3.000000e+00
-3.000000e+00
-3.000000e+00
-3.000000e+00
-3.000000e+00
-3.000000e+00
-3.000000e+00
-3.000000e+00
-3.000000e+00
-3.000000e+00
-3.000000e+00
-3.000000e+00
-3.000000e+00
-3.000000e+00
-3.000000e+00
-3.000000e+00
-3.000000e+00
-3.000000e+00
-3.000000e+00
-3.000000e+00
-3.000000e+00
-3.000000e+00
-3.000000e+00
-3.000000e+00
-3.000000e+00
-3.000000e+00
-3.000000e+00
-3.000000e+00
-3.000000e+00
-3.000000e+00
-3.000000e+00
-3.000000e+00
-3.000000e+00
-3.000000e+00
-3.000000e+00
-3.000000e+00
-3.000000e+00
-3.000000e+00
-3.000000e+00
-3.000000e+00
-3.000000e+00
-3.000000e+00
-3.000000e+00
-3.000000e+00
-3.000000e+00
-3.000000e+00
-3.000000e+00
-3.000000e+00
-3.000000e+00
-3.000000e+00
-3.000000e+00
-3.000000e+00
-3.000000e+00
-3.000000e+00
-3.000000e+00
-3.000000e+00
-3.000000e+00
-3.000000e+00
-3.000000e+00
-3.000000e+00
-3.000000e+00
-3.000000e+00
-3.000000e+00
-3.000000e+00
-3.000000e+00
-3.000000e+00
-3.000000e+00
-3.000000e+00
-3.000000e+00
-3.000000e+00
-3.000000e+00
-3.000000e+00
-3.000000e+00
-3.000000e+00
-3.000000e+00
-3.000000e+00
-3.000000e+00
-3.000000e+00
-3.000000e+00
-3.000000e+00
-3.000000e+00
-3.000000e+00
-3.000000e+00
-3.000000e+00
-3.000000e+00
-3.000000e+00
-3.000000e+00
-3.000000e+00
-3.000000e+00
-3.000000e+00
-3.000000e+00
-3.000000e+00
-3.000000e+00
-3.000000e+00
-3.000000e+00
-3.000000e+00
-3.000000e+00
-3.000000e+00
-3.000000e+00
-3.000000e+00
-3.000000e+00
-2.948565e+00
-2.867475e+00
-2.837257e+00
-2.859841e+00
-2.935984e+00
-3.000000e+00
-3.000000e+00
-3.000000e+00
-3.000000e+00
-3.000000e+00
-3.000000e+00
-3.000000e+00
-3.000000e+00
-3.000000e+00
-3.000000e+00
-3.000000e+00
-3.000000e+00
-3.000000e+00
-3.000000e+00
-3.000000e+00
-3.000000e+00
-3.000000e+00
-3.000000e+00
-3.000000e+00
-3.000000e+00
-3.000000e+00
-3.000000e+00
-3.000000e+00
-2.781042e+00
-2.595962e+00
-2.456401e+00
-2.366663e+00
-2.330280e+00
-2.349697e+00
-2.425989e+00
-2.558689e+00
-2.745817e+00
-2.984109e+00
-3.000000e+00
-3.000000e+00
-3.000000e+00
-3.000000e+00
-3.000000e+00
-3.000000e+00
-3.000000e+00
-3.000000e+00
-3.000000e+00
-3.000000e+00
-3.000000e+00
-3.000000e+00
-3.000000e+00
-3.000000e+00
-3.000000e+00
-3.000000e+00
-3.000000e+00
-3.000000e+00
-2.828268e+00
-2.553622e+00
-2.314584e+00
-2.116713e+00
-1.965483e+00
-1.865980e+00
-1.822531e+00
-1.838271e+00
-1.914713e+00
-2.051471e+00
-2.246260e+00
-2.495212e+00
-2.793406e+00
-3.000000e+00
-3.000000e+00
-3.000000e+00
-3.000000e+00
-3.000000e+00
-3.000000e+00
-3.000000e+00
-3.000000e+00
-3.000000e+00
-3.000000e+00
-3.000000e+00
-3.000000e+00
-3.000000e+00
-3.000000e+00
-3.000000e+00
-3.000000e+00
-2.711323e+00
-2.393612e+00
-2.105289e+00
-1.852134e+00
-1.640306e+00
-1.476066e+00
-1.365453e+00
-1.313825e+00
-1.325261e+00
-1.401889e+00
-1.543430e+00
-1.747175e+00
-2.008443e+00
-2.321322e+00
-2.679445e+00
-3.000000e+00
-3.000000e+00
-3.000000e+00
-3.000000e+00
-3.000000e+00
-3.000000e+00
-3.000000e+00
-3.000000e+00
-3.000000e+00
-3.000000e+00
-3.000000e+00
-3.000000e+00
-3.000000e+00
-3.000000e+00
-2.649538e+00
-2.295789e+00
-1.965021e+00
-1.662491e+00
-1.394327e+00
-1.167280e+00
-9.884802e-01
-8.651190e-01
-8.039202e-01
-8.102704e-01
-8.871742e-01
-1.034491e+00
-1.248884e+00
-1.524534e+00
-1.854233e+00
-2.230433e+00
-2.646002e+00
-3.000000e+00
-3.000000e+00
-3.000000e+00
-3.000000e+00
-3.000000e+00
-3.000000e+00
-3.000000e+00
-3.000000e+00
-3.000000e+00
-3.000000e+00
-3.000000e+00
-3.000000e+00
-2.635437e+00
-2.252446e+00
-1.886974e+00
-1.543053e+00
-1.225919e+00
-9.419138e-01
-6.983142e-01
-5.031583e-01
-3.650306e-01
-2.924809e-01
-2.927663e-01
-3.701514e-01
-5.246390e-01
-7.519191e-01
-1.044546e+00
-1.393596e+00
-1.790093e+00
-2.225886e+00
-2.693998e+00
-3.000000e+00
-3.000000e+00
-3.000000e+00
-3.000000e+00
-3.000000e+00
-3.000000e+00
-3.000000e+00
-3.000000e+00
-3.000000e+00
-3.000000e+00
-2.663138e+00
-2.255764e+00
-1.862313e+00
-1.485261e+00
-1.128254e+00
-7.962995e-01
-4.957575e-01
-2.342522e-01
-2.067764e-02
1.347400e-01
2.209602e-01
2.279778e-01
1.496843e-01
-1.399080e-02
-2.571556e-01
-5.700080e-01
-9.413778e-01
-1.360602e+00
-1.818462e+00
-2.307401e+00
-2.821404e+00
-3.000000e+00
-3.000000e+00
-3.000000e+00
-3.000000e+00
-3.000000e+00
-3.000000e+00
-3.000000e+00
-3.000000e+00
-2.730684e+00
-2.300898e+00
-1.883414e+00
-1.479450e+00
-1.090979e+00
-7.211004e-01
-3.743561e-01
-5.682715e-02
2.238526e-01
4.581816e-01
6.340932e-01
7.370800e-01
7.529676e-01
6.729146e-01
4.970688e-01
2.339815e-01
-1.031186e-01
-5.001923e-01
-9.446960e-01
-1.426400e+00
-1.937310e+00
-2.471314e+00
-3.000000e+00
-3.000000e+00
-3.000000e+00
-3.000000e+00
-3.000000e+00
-3.000000e+00
-3.000000e+00
-2.840819e+00
-2.388087e+00
-1.947255e+00
-1.518997e+00
-1.104227e+00
-7.044021e-01
-3.219609e-01
3.926472e-02
3.738453e-01
6.746957e-01
9.323370e-01
1.132877e+00
1.256891e+00
1.283611e+00
1.200120e+00
1.007607e+00
7.191833e-01
3.529813e-01
-7.348000e-02
-5.457680e-01
-1.052862e+00
-1.586589e+00
-2.140951e+00
-2.711515e+00
-3.000000e+00
-3.000000e+00
-3.000000e+00
-3.000000e+00
-3.000000e+00
-2.999852e+00
-2.522472e+00
-2.056798e+00
-1.603550e+00
-1.163418e+00
-7.371500e-01
-3.257804e-01
6.895045e-02
4.441013e-01
7.952740e-01
1.116712e+00
1.400259e+00
1.630858e+00
1.781975e+00
1.821901e+00
1.731668e+00
1.515652e+00
1.194776e+00
7.938895e-01
3.343239e-01
-1.679322e-01
-7.015166e-01
-1.258452e+00
-1.833109e+00
-2.421458e+00
-3.000000e+00
-3.000000e+00
-3.000000e+00
-3.000000e+00
-3.000000e+00
-2.712052e+00
-2.219591e+00
-1.739134e+00
-1.271636e+00
-8.179793e-01
-3.789573e-01
4.461926e-02
4.516122e-01
8.400306e-01
1.206750e+00
1.548163e+00
1.859758e+00
2.127659e+00
2.314922e+00
2.370605e+00
2.267127e+00
2.017309e+00
1.655063e+00
1.213606e+00
7.176714e-01
1.839612e-01
-3.765143e-01
-9.564229e-01
-1.550786e+00
-2.156139e+00
-3.000000e+00
-3.000000e+00
-3.000000e+00
-3.000000e+00
-2.965162e+00
-2.444912e+00
-1.935451e+00
-1.438033e+00
-9.539471e-01
-4.844465e-01
-3.064986e-02
4.065250e-01
8.262660e-01
1.227449e+00
1.608226e+00
1.967467e+00
2.307676e+00
2.622615e+00
2.860249e+00
2.933314e+00
2.803850e+00
2.505334e+00
2.091567e+00
1.604267e+00
1.069865e+00
5.043595e-01
-8.243307e-02
-6.842926e-01
-1.297139e+00
-1.918208e+00
-3.000000e+00
-3.000000e+00
-3.000000e+00
-3.000000e+00
-2.741098e+00
-2.202484e+00
-1.673988e+00
-1.157116e+00
-6.535382e-01
-1.650338e-01
3.066390e-01
7.599512e-01
1.193838e+00
1.607702e+00
2.000919e+00
2.374159e+00
2.739630e+00
3.000000e+00
3.000000e+00
3.000000e+00
3.000000e+00
2.967165e+00
2.492393e+00
1.956096e+00
1.383146e+00
7.871181e-01
1.758093e-01
-4.460421e-01
-1.075430e+00
-1.710364e+00
-3.000000e+00
-3.000000e+00
-3.000000e+00
-3.000000e+00
-2.547845e+00
-1.989442e+00
-1.439880e+00
-9.008119e-01
-3.742181e-01
1.375639e-01
6.318899e-01
1.105994e+00
1.557445e+00
1.984913e+00
2.388738e+00
2.770981e+00
3.000000e+00
3.000000e+00
3.000000e+00
3.000000e+00
3.000000e+00
3.000000e+00
2.842105e+00
2.257610e+00
1.648903e+00
1.025638e+00
3.930616e-01
-2.457645e-01
-8.889564e-01
-1.535297e+00
-3.000000e+00
-3.000000e+00
-3.000000e+00
-2.975139e+00
-2.390333e+00
-1.811128e+00
-1.238734e+00
-6.747044e-01
-1.210509e-01
4.196143e-01
9.439122e-01
1.447560e+00
1.925437e+00
2.372364e+00
2.785565e+00
3.000000e+00
3.000000e+00
3.000000e+00
3.000000e+00
3.000000e+00
3.000000e+00
3.000000e+00
3.000000e+00
2.496000e+00
1.857887e+00
1.213035e+00
5.640661e-01
-8.755321e-02
-7.409567e-01
-1.395608e+00
-3.000000e+00
-3.000000e+00
-3.000000e+00
-2.877200e+00
-2.273777e+00
-1.673562e+00
-1.077351e+00
-4.862153e-01
9.836690e-02
6.743079e-01
1.238584e+00
1.786698e+00
2.311792e+00
2.803313e+00
3.000000e+00
3.000000e+00
3.000000e+00
3.000000e+00
3.000000e+00
3.000000e+00
3.000000e+00
3.000000e+00
3.000000e+00
2.657459e+00
2.000457e+00
1.342329e+00
6.836321e-01
2.464150e-02
-6.345013e-01
-1.293723e+00
-3.000000e+00
-3.000000e+00
-3.000000e+00
-2.823917e+00
-2.203308e+00
-1.583263e+00
-9.639335e-01
-3.455278e-01
2.716505e-01
8.871537e-01
1.500284e+00
2.109900e+00
2.713979e+00
3.000000e+00
3.000000e+00
3.000000e+00
3.000000e+00
3.000000e+00
3.000000e+00
3.000000e+00
3.000000e+00
3.000000e+00
3.000000e+00
2.727676e+00
2.067071e+00
1.406881e+00
7.469703e-01
8.726350e-02
-5.722960e-01
-1.231745e+00
-3.000000e+00
-3.000000e+00
-3.000000e+00
-2.818192e+00
-2.183297e+00
-1.546632e+00
-9.077392e-01
-2.659810e-01
3.795319e-01
1.030083e+00
1.687573e+00
2.354883e+00
3.000000e+00
3.000000e+00
3.000000e+00
3.000000e+00
3.000000e+00
3.000000e+00
3.000000e+00
3.000000e+00
3.000000e+00
3.000000e+00
3.000000e+00
2.693928e+00
2.049638e+00
1.401241e+00
7.502478e-01
9.751600e-02
-5.564412e-01
-1.211293e+00
-3.000000e+00
-3.000000e+00
-3.000000e+00
-2.860998e+00
-2.216299e+00
-1.568641e+00
-9.174671e-01
-2.621468e-01
3.979241e-01
1.063067e+00
1.732540e+00
2.402403e+00
3.000000e+00
3.000000e+00
3.000000e+00
3.000000e+00
3.000000e+00
3.000000e+00
3.000000e+00
3.000000e+00
3.000000e+00
3.000000e+00
3.000000e+00
2.550412e+00
1.944164e+00
1.322583e+00
6.913993e-01
5.384915e-02
-5.881265e-01
-1.233296e+00
-3.000000e+00
-3.000000e+00
-3.000000e+00
-2.950677e+00
-2.301962e+00
-1.651025e+00
-9.981549e-01
-3.442501e-01
3.085425e-01
9.555840e-01
1.587306e+00
2.184839e+00
2.713547e+00
3.000000e+00
3.000000e+00
3.000000e+00
3.000000e+00
3.000000e+00
3.000000e+00
3.000000e+00
3.000000e+00
3.000000e+00
2.805070e+00
2.304511e+00
1.753733e+00
1.172216e+00
5.709563e-01
-4.356259e-02
-6.673467e-01
-1.297829e+00
-3.000000e+00
-3.000000e+00
-3.000000e+00
-3.000000e+00
-3.000000e+00
-3.000000e+00
-3.000000e+00
-3.000000e+00
-3.000000e+00
-3.000000e+00
-3.000000e+00
-3.000000e+00
-3.000000e+00
-3.000000e+00
-3.000000e+00
-3.000000e+00
-3.000000e+00
-3.000000e+00
-3.000000e+00
-3.000000e+00
-3.000000e+00
-3.000000e+00
-3.000000e+00
-3.000000e+00
-3.000000e+00
-3.000000e+00
-3.000000e+00
-3.000000e+00
-3.000000e+00
-3.000000e+00
-3.000000e+00
-3.000000e+00
-3.000000e+00
-3.000000e+00
-3.000000e+00
-3.000000e+00
-3.000000e+00
-3.000000e+00
-3.000000e+00
-3.000000e+00
-3.000000e+00
-3.000000e+00
-3.000000e+00
-3.000000e+00
-3.000000e+00
-3.000000e+00
-3.000000e+00
-3.000000e+00
-3.000000e+00
-3.000000e+00
-3.000000e+00
-3.000000e+00
-3.000000e+00
-3.000000e+00
-3.000000e+00
-3.000000e+00
-3.000000e+00
-3.000000e+00
-3.000000e+00
-3.000000e+00
-3.000000e+00
-3.000000e+00
-3.000000e+00
-3.000000e+00
-3.000000e+00
-3.000000e+00
-3.000000e+00
-3.000000e+00
-3.000000e+00
-3.000000e+00
-3.000000e+00
-3.000000e+00
-3.000000e+00
-3.000000e+00
-3.000000e+00
-3.000000e+00
-3.000000e+00
-3.000000e+00
-3.000000e+00
-3.000000e+00
-3.000000e+00
-3.000000e+00
-3.000000e+00
-3.000000e+00
-3.000000e+00
-3.000000e+00
-3.000000e+00
-3.000000e+00
-3.000000e+00
-3.000000e+00
-3.000000e+00
-3.000000e+00
-3.000000e+00
-3.000000e+00
-3.000000e+00
-3.000000e+00
-3.000000e+00
-3.000000e+00
-3.000000e+00
-3.000000e+00
-3.000000e+00
-3.000000e+00
-3.000000e+00
-3.000000e+00
-3.000000e+00
-3.000000e+00
-3.000000e+00
-3.000000e+00
-3.000000e+00
-3.000000e+00
-3.000000e+00
-3.000000e+00
-3.000000e+00
-3.000000e+00
-3.000000e+00
-3.000000e+00
-3.000000e+00
-3.000000e+00
-3.000000e+00
-3.000000e+00
-3.000000e+00
-3.000000e+00
-3.000000e+00
-3.000000e+00
-3.000000e+00
-3.000000e+00
-3.000000e+00
-3.000000e+00
-3.000000e+00
-3.000000e+00
-3.000000e+00
-3.000000e+00
-3.000000e+00
-3.000000e+00
-3.000000e+00
-3.000000e+00
-3.000000e+00
-3.000000e+00
-3.000000e+00
-3.000000e+00
-3.000000e+00
-3.000000e+00
-3.000000e+00
-3.000000e+00
-3.000000e+00
-3.000000e+00
-3.000000e+00
-3.000000e+00
-3.000000e+00
-3.000000e+00
-3.000000e+00
-3.000000e+00
-3.000000e+00
-3.000000e+00
-3.000000e+00
-3.000000e+00
-3.000000e+00
-3.000000e+00
-3.000000e+00
-3.000000e+00
-3.000000e+00
-3.000000e+00
-3.000000e+00
-3.000000e+00
-3.000000e+00
-3.000000e+00
-3.000000e+00
-3.000000e+00
-3.000000e+00
-3.000000e+00
-3.000000e+00
-3.000000e+00
-3.000000e+00
-3.000000e+00
-3.000000e+00
-3.000000e+00
-3.000000e+00
-3.000000e+00
-3.000000e+00
-3.000000e+00
-3.000000e+00
-3.000000e+00
-3.000000e+00
-3.000000e+00
-3.000000e+00
-3.000000e+00
-3.000000e+00
-3.000000e+00
-3.000000e+00
-3.000000e+00
-3.000000e+00
-3.000000e+00
-3.000000e+00
-3.000000e+00
-3.000000e+00
-3.000000e+00
-3.000000e+00
-3.000000e+00
-3.000000e+00
-3.000000e+00
-3.000000e+00
-3.000000e+00
-3.000000e+00
-3.000000e+00
-3.000000e+00
-3.000000e+00
-3.000000e+00
-3.000000e+00
-3.000000e+00
-3.000000e+00
-3.000000e+00
-3.000000e+00
-3.000000e+00
-3.000000e+00
-3.000000e+00
-3.000000e+00
-3.000000e+00
-3.000000e+00
-3.000000e+00
-3.000000e+00
-3.000000e+00
-3.000000e+00
-3.000000e+00
-3.000000e+00
-3.000000e+00
-3.000000e+00
-3.000000e+00
-3.000000e+00
-3.000000e+00
-3.000000e+00
-3.000000e+00
-3.000000e+00
-3.000000e+00
-3.000000e+00
-3.000000e+00
-3.000000e+00
-3.000000e+00
-3.000000e+00
-3.000000e+00
-3.000000e+00
-3.000000e+00
-3.000000e+00
-3.000000e+00
-3.000000e+00
-3.000000e+00
-3.000000e+00
-3.000000e+00
-3.000000e+00
-3.000000e+00
-3.000000e+00
-3.000000e+00
-3.000000e+00
-3.000000e+00
-3.000000e+00
-3.000000e+00
-3.000000e+00
-3.000000e+00
-3.000000e+00
-3.000000e+00
-3.000000e+00
-3.000000e+00
-3.000000e+00
-3.000000e+00
-3.000000e+00
-3.000000e+00
-3.000000e+00
-3.000000e+00
-3.000000e+00
-3.000000e+00
-3.000000e+00
-3.000000e+00
-3.000000e+00
-3.000000e+00
-3.000000e+00
-3.000000e+00
-3.000000e+00
-3.000000e+00
-3.000000e+00
-3.000000e+00
-3.000000e+00
-3.000000e+00
-3.000000e+00
-3.000000e+00
-3.000000e+00
-3.000000e+00
-3.000000e+00
-3.000000e+00
-2.954461e+00
-2.934690e+00
-2.967401e+00
-3.000000e+00
-3.000000e+00
-3.000000e+00
-3.000000e+00
-3.000000e+00
-3.000000e+00
-3.000000e+00
-3.000000e+00
-3.000000e+00
-3.000000e+00
-3.000000e+00
-3.000000e+00
-3.000000e+00
-3.000000e+00
-3.000000e+00
-3.000000e+00
-3.000000e+00
-3.000000e+00
-3.000000e+00
-3.000000e+00
-3.000000e+00
-3.000000e+00
-3.000000e+00
-3.000000e+00
-2.834688e+00
-2.659799e+00
-2.530999e+00
-2.452342e+00
-2.427057e+00
-2.457258e+00
-2.543686e+00
-2.685593e+00
-2.880804e+00
-3.000000e+00
-3.000000e+00
-3.000000e+00
-3.000000e+00
-3.000000e+00
-3.000000e+00
-3.000000e+00
-3.000000e+00
-3.000000e+00
-3.000000e+00
-3.000000e+00
-3.000000e+00
-3.000000e+00
-3.000000e+00
-3.000000e+00
-3.000000e+00
-3.000000e+00
-3.000000e+00
-3.000000e+00
-2.860631e+00
-2.594595e+00
-2.365196e+00
-2.177881e+00
-2.037935e+00
-1.950169e+00
-1.918561e+00
-1.945843e+00
-2.033111e+00
-2.179625e+00
-2.382862e+00
-2.638859e+00
-2.942724e+00
-3.000000e+00
-3.000000e+00
-3.000000e+00
-3.000000e+00
-3.000000e+00
-3.000000e+00
-3.000000e+00
-3.000000e+00
-3.000000e+00
-3.000000e+00
-3.000000e+00
-3.000000e+00
-3.000000e+00
-3.000000e+00
-3.000000e+00
-3.000000e+00
-2.732746e+00
-2.422470e+00
-2.142763e+00
-1.899410e+00
-1.698487e+00
-1.546077e+00
-1.447929e+00
-1.408999e+00
-1.432863e+00
-1.521120e+00
-1.673036e+00
-1.885614e+00
-2.154076e+00
-2.472586e+00
-2.834957e+00
-3.000000e+00
-3.000000e+00
-3.000000e+00
-3.000000e+00
-3.000000e+00
-3.000000e+00
-3.000000e+00
-3.000000e+00
-3.000000e+00
-3.000000e+00
-3.000000e+00
-3.000000e+00
-3.000000e+00
-3.000000e+00
-2.661335e+00
-2.313705e+00
-1.990192e+00
-1.696206e+00
-1.437938e+00
-1.222105e+00
-1.055692e+00
-9.456055e-01
-8.981020e-01
-9.179376e-01
-1.007419e+00
-1.165812e+00
-1.389427e+00
-1.672369e+00
-2.007572e+00
-2.387756e+00
-2.806083e+00
-3.000000e+00
-3.000000e+00
-3.000000e+00
-3.000000e+00
-3.000000e+00
-3.000000e+00
-3.000000e+00
-3.000000e+00
-3.000000e+00
-3.000000e+00
-3.000000e+00
-3.000000e+00
-2.638935e+00
-2.260916e+00
-1.901297e+00
-1.564379e+00
-1.255618e+00
-9.815015e-01
-7.493505e-01
-5.671322e-01
-4.431758e-01
-3.855038e-01
-4.005566e-01
-4.916543e-01
-6.580052e-01
-8.948769e-01
-1.194804e+00
-1.549115e+00
-1.949219e+00
-2.387346e+00
-2.856849e+00
-3.000000e+00
-3.000000e+00
-3.000000e+00
-3.000000e+00
-3.000000e+00
-3.000000e+00
-3.000000e+00
-3.000000e+00
-3.000000e+00
-3.000000e+00
-2.659169e+00
-2.256082e+00
-1.867419e+00
-1.495941e+00
-1.145614e+00
-8.217503e-01
-5.309514e-01
-2.810054e-01
-8.086777e-02
5.939018e-02
1.293059e-01
1.199614e-01
2.658124e-02
-1.498251e-01
-4.028863e-01
-7.228971e-01
-1.099128e+00
-1.521445e+00
-1.981114e+00
-2.470961e+00
-2.985255e+00
-3.000000e+00
-3.000000e+00
-3.000000e+00
-3.000000e+00
-3.000000e+00
-3.000000e+00
-3.000000e+00
-3.000000e+00
-2.719238e+00
-2.293600e+00
-1.880437e+00
-1.481152e+00
-1.097996e+00
-7.344297e-01
-3.953761e-01
-8.726811e-02
1.819404e-01
4.024560e-01
5.621349e-01
6.470543e-01
6.445427e-01
5.477217e-01
3.582244e-01
8.508751e-02
-2.588081e-01
-6.601309e-01
-1.107063e+00
-1.589953e+00
-2.101234e+00
-2.635082e+00
-3.000000e+00
-3.000000e+00
-3.000000e+00
-3.000000e+00
-3.000000e+00
-3.000000e+00
-3.000000e+00
-2.821042e+00
-2.372702e+00
-1.936288e+00
-1.512520e+00
-1.102439e+00
-7.077527e-01
-3.312580e-01
2.277269e-02
3.484647e-01
6.382337e-01
8.819401e-01
1.065125e+00
1.168823e+00
1.174458e+00
1.072135e+00
8.650884e-01
5.667477e-01
1.944388e-01
-2.354118e-01
-7.093044e-01
-1.216880e+00
-1.750408e+00
-2.304164e+00
-2.873892e+00
-3.000000e+00
-3.000000e+00
-3.000000e+00
-3.000000e+00
-3.000000e+00
-2.970371e+00
-2.497730e+00
-2.036851e+00
-1.588413e+00
-1.153095e+00
-7.317023e-01
-3.254400e-01
6.362847e-02
4.321146e-01
7.751344e-01
1.086305e+00
1.356290e+00
1.568459e+00
1.696270e+00
1.711431e+00
1.599878e+00
1.368689e+00
1.038525e+00
6.326505e-01
1.708249e-01
-3.320773e-01
-8.653914e-01
-1.421556e+00
-1.995184e+00
-2.582388e+00
-3.000000e+00
-3.000000e+00
-3.000000e+00
-3.000000e+00
-3.000000e+00
-2.676341e+00
-2.189012e+00
-1.713812e+00
-1.251631e+00
-8.032859e-01
-3.695401e-01
4.873418e-02
4.501694e-01
8.323771e-01
1.191799e+00
1.524283e+00
1.823599e+00
2.072299e+00
2.232051e+00
2.257728e+00
2.130109e+00
1.865138e+00
1.495008e+00
1.050178e+00
5.533511e-01
2.002688e-02
-5.394346e-01
-1.118050e+00
-1.711021e+00
-2.314983e+00
-3.000000e+00
-3.000000e+00
-3.000000e+00
-3.000000e+00
-2.916968e+00
-2.401941e+00
-1.897988e+00
-1.406322e+00
-9.281554e-01
-4.646393e-01
-1.677626e-02
4.145936e-01
8.285925e-01
1.223805e+00
1.598058e+00
1.950181e+00
2.280988e+00
2.576927e+00
2.780648e+00
2.815995e+00
2.659773e+00
2.347515e+00
1.928289e+00
1.439694e+00
9.058832e-01
3.417636e-01
-2.433632e-01
-8.435113e-01
-1.454708e+00
-2.074235e+00
-3.000000e+00
-3.000000e+00
-3.000000e+00
-3.000000e+00
-2.684306e+00
-2.151093e+00
-1.628422e+00
-1.117780e+00
-6.207889e-01
-1.391165e-01
3.256543e-01
7.722254e-01
1.199725e+00
1.607509e+00
1.994680e+00
2.362611e+00
2.724070e+00
3.000000e+00
3.000000e+00
3.000000e+00
3.000000e+00
2.804219e+00
2.327432e+00
1.792127e+00
1.221159e+00
6.273293e-01
1.814652e-02
-6.017522e-01
-1.229383e+00
-1.862750e+00
-3.000000e+00
-3.000000e+00
-3.000000e+00
-3.000000e+00
-2.481326e+00
-1.928360e+00
-1.384810e+00
-8.523662e-01
-3.330205e-01
1.709385e-01
6.570198e-01
1.122776e+00
1.566294e+00
1.986807e+00
2.384750e+00
2.762733e+00
3.000000e+00
3.000000e+00
3.000000e+00
3.000000e+00
3.000000e+00
3.000000e+00
2.678363e+00
2.096855e+00
1.491112e+00
8.704885e-01
2.401886e-01
-3.966918e-01
-1.038219e+00
-1.683132e+00
-3.000000e+00
-3.000000e+00
-3.000000e+00
-2.893124e+00
-2.312959e+00
-1.739004e+00
-1.172572e+00
-6.153365e-01
-6.942900e-02
4.624321e-01
9.768255e-01
1.469606e+00
1.936196e+00
2.372719e+00
2.778521e+00
3.000000e+00
3.000000e+00
3.000000e+00
3.000000e+00
3.000000e+00
3.000000e+00
3.000000e+00
2.964303e+00
2.342032e+00
1.707083e+00
1.064728e+00
4.177490e-01
-2.322630e-01
-8.843503e-01
-1.537909e+00
-3.000000e+00
-3.000000e+00
-3.000000e+00
-2.783821e+00
-2.184510e+00
-1.589042e+00
-9.983612e-01
-4.137316e-01
1.631150e-01
7.297584e-01
1.282747e+00
1.817069e+00
2.325387e+00
2.797228e+00
3.000000e+00
3.000000e+00
3.000000e+00
3.000000e+00
3.000000e+00
3.000000e+00
3.000000e+00
3.000000e+00
3.000000e+00
2.514899e+00
1.860038e+00
1.203436e+00
5.458631e-01
-1.122740e-01
-7.707546e-01
-1.429450e+00
-3.000000e+00
-3.000000e+00
-3.000000e+00
-2.718695e+00
-2.101384e+00
-1.485184e+00
-8.704003e-01
-2.574496e-01
3.530669e-01
9.602534e-01
1.562719e+00
2.158179e+00
2.742621e+00
3.000000e+00
3.000000e+00
3.000000e+00
3.000000e+00
3.000000e+00
3.000000e+00
3.000000e+00
3.000000e+00
3.000000e+00
3.000000e+00
2.602193e+00
1.940972e+00
1.280252e+00
6.198890e-01
-4.020735e-02
-7.001018e-01
-1.359846e+00
-3.000000e+00
-3.000000e+00
-3.000000e+00
-2.701154e+00
-2.068471e+00
-1.434346e+00
-7.983947e-01
-1.600714e-01
4.813955e-01
1.127151e+00
1.778948e+00
2.439600e+00
3.000000e+00
3.000000e+00
3.000000e+00
3.000000e+00
3.000000e+00
3.000000e+00
3.000000e+00
3.000000e+00
3.000000e+00
3.000000e+00
3.000000e+00
2.591672e+00
1.941962e+00
1.289774e+00
6.359892e-01
-1.888115e-02
-6.745235e-01
-1.330738e+00
-3.000000e+00
-3.000000e+00
-3.000000e+00
-2.732842e+00
-2.089129e+00
-1.442454e+00
-7.921951e-01
-1.375873e-01
5.222282e-01
1.188055e+00
1.860090e+00
2.536181e+00
3.000000e+00
3.000000e+00
3.000000e+00
3.000000e+00
3.000000e+00
3.000000e+00
3.000000e+00
3.000000e+00
3.000000e+00
3.000000e+00
3.000000e+00
2.476256e+00
1.858323e+00
1.228756e+00
5.918260e-01
-5.003266e-02
-6.953437e-01
-1.343165e+00
-3.000000e+00
-3.000000e+00
-3.000000e+00
-2.812844e+00
-2.163959e+00
-1.512526e+00
-8.586504e-01
-2.029432e-01
4.528782e-01
1.104764e+00
1.743814e+00
2.351377e+00
2.890945e+00
3.000000e+00
3.000000e+00
3.000000e+00
3.000000e+00
3.000000e+00
3.000000e+00
3.000000e+00
3.000000e+00
3.000000e+00
2.786443e+00
2.259717e+00
1.691323e+00
1.097510e+00
4.873381e-01
-1.338638e-01
-7.628065e-01
-1.397372e+00
-3.000000e+00
-3.000000e+00
-3.000000e+00
-2.937427e+00
-2.290065e+00
-1.642925e+00
-9.978491e-01
-3.581901e-01
2.701102e-01
8.768513e-01
1.445309e+00
1.950263e+00
2.359311e+00
2.643243e+00
2.798579e+00
2.867299e+00
2.915075e+00
2.965646e+00
3.000000e+00
3.000000e+00
2.987682e+00
2.763383e+00
2.406996e+00
1.958487e+00
1.449470e+00
9.007030e-01
3.252206e-01
-2.687481e-01
-8.758941e-01
-1.492701e+00
-3.000000e+00
-3.000000e+00
-3.000000e+00
-3.000000e+00
-3.000000e+00
-3.000000e+00
-3.000000e+00
-3.000000e+00
-3.000000e+00
-3.000000e+00
-3.000000e+00
-3.000000e+00
-3.000000e+00
-3.000000e+00
-3.000000e+00
-3.000000e+00
-3.000000e+00
-3.000000e+00
-3.000000e+00
-3.000000e+00
-3.000000e+00
-3.000000e+00
-3.000000e+00
-3.000000e+00
-3.000000e+00
-3.000000e+00
-3.000000e+00
-3.000000e+00
-3.000000e+00
-3.000000e+00
-3.000000e+00
-3.000000e+00
-3.000000e+00
-3.000000e+00
-3.000000e+00
-3.000000e+00
-3.000000e+00
-3.000000e+00
-3.000000e+00
-3.000000e+00
-3.000000e+00
-3.000000e+00
-3.000000e+00
-3.000000e+00
-3.000000e+00
-3.000000e+00
-3.000000e+00
-3.000000e+00
-3.000000e+00
-3.000000e+00
-3.000000e+00
-3.000000e+00
-3.000000e+00
-3.000000e+00
-3.000000e+00
-3.000000e+00
-3.000000e+00
-3.000000e+00
-3.000000e+00
-3.000000e+00
-3.000000e+00
-3.000000e+00
-3.000000e+00
-3.000000e+00
-3.000000e+00
-3.000000e+00
-3.000000e+00
-3.000000e+00
-3.000000e+00
-3.000000e+00
-3.000000e+00
-3.000000e+00
-3.000000e+00
-3.000000e+00
-3.000000e+00
-3.000000e+00
-3.000000e+00
-3.000000e+00
-3.000000e+00
-3.000000e+00
-3.000000e+00
-3.000000e+00
-3.000000e+00
-3.000000e+00
-3.000000e+00
-3.000000e+00
-3.000000e+00
-3.000000e+00
-3.000000e+00
-3.000000e+00
-3.000000e+00
-3.000000e+00
-3.000000e+00
-3.000000e+00
-3.000000e+00
-3.000000e+00
-3.000000e+00
-3.000000e+00
-3.000000e+00
-3.000000e+00
-3.000000e+00
-3.000000e+00
-3.000000e+00
-3.000000e+00
-3.000000e+00
-3.000000e+00
-3.000000e+00
-3.000000e+00
-3.000000e+00
-3.000000e+00
-3.000000e+00
-3.000000e+00
-3.000000e+00
-3.000000e+00
-3.000000e+00
-3.000000e+00
-3.000000e+00
-3.000000e+00
-3.000000e+00
-3.000000e+00
-3.000000e+00
-3.000000e+00
-3.000000e+00
-3.000000e+00
-3.000000e+00
-3.000000e+00
-3.000000e+00
-3.000000e+00
-3.000000e+00
-3.000000e+00
-3.000000e+00
-3.000000e+00
-3.000000e+00
-3.000000e+00
-3.000000e+00
-3.000000e+00
-3.000000e+00
-3.000000e+00
-3.000000e+00
-3.000000e+00
-3.000000e+00
-3.000000e+00
-3.000000e+00
-3.000000e+00
-3.000000e+00
-3.000000e+00
-3.000000e+00
-3.000000e+00
-3.000000e+00
-3.000000e+00
-3.000000e+00
-3.000000e+00
-3.000000e+00
-3.000000e+00
-3.000000e+00
-3.000000e+00
-3.000000e+00
-3.000000e+00
-3.000000e+00
-3.000000e+00
-3.000000e+00
-3.000000e+00
-3.000000e+00
-3.000000e+00
-3.000000e+00
-3.000000e+00
-3.000000e+00
-3.000000e+00
-3.000000e+00
-3.000000e+00
-3.000000e+00
-3.000000e+00
-3.000000e+00
-3.000000e+00
-3.000000e+00
-3.000000e+00
-3.000000e+00
-3.000000e+00
-3.000000e+00
-3.000000e+00
-3.000000e+00
-3.000000e+00
-3.000000e+00
-3.000000e+00
-3.000000e+00
-3.000000e+00
-3.000000e+00
-3.000000e+00
-3.000000e+00
-3.000000e+00
-3.000000e+00
-3.000000e+00
-3.000000e+00
-3.000000e+00
-3.000000e+00
-3.000000e+00
-3.000000e+00
-3.000000e+00
-3.000000e+00
-3.000000e+00
-3.000000e+00
-3.000000e+00
-3.000000e+00
-3.000000e+00
-3.000000e+00
-3.000000e+00
-3.000000e+00
-3.000000e+00
-3.000000e+00
-3.000000e+00
-3.000000e+00
-3.000000e+00
-3.000000e+00
-3.000000e+00
-3.000000e+00
-3.000000e+00
-3.000000e+00
-3.000000e+00
-3.000000e+00
-3.000000e+00
-3.000000e+00
-3.000000e+00
-3.000000e+00
-3.000000e+00
-3.000000e+00
-3.000000e+00
-3.000000e+00
-3.000000e+00
-3.000000e+00
-3.000000e+00
-3.000000e+00
-3.000000e+00
-3.000000e+00
-3.000000e+00
-3.000000e+00
-3.000000e+00
-3.000000e+00
-3.000000e+00
-3.000000e+00
-3.000000e+00
-3.000000e+00
-3.000000e+00
-3.000000e+00
-3.000000e+00
-3.000000e+00
-3.000000e+00
-3.000000e+00
-3.000000e+00
-3.000000e+00
-3.000000e+00
-3.000000e+00
-3.000000e+00
-3.000000e+00
-3.000000e+00
-3.000000e+00
-3.000000e+00
-3.000000e+00
-3.000000e+00
-3.000000e+00
-3.000000e+00
-3.000000e+00
-3.000000e+00
-3.000000e+00
-3.000000e+00
-3.000000e+00
-3.000000e+00
-3.000000e+00
-3.000000e+00
-3.000000e+00
-3.000000e+00
-3.000000e+00
-3.000000e+00
-3.000000e+00
-3.000000e+00
-3.000000e+00
-3.000000e+00
-3.000000e+00
-3.000000e+00
-3.000000e+00
-3.000000e+00
-3.000000e+00
-3.000000e+00
-3.000000e+00
-3.000000e+00
-2.890665e+00
-2.726009e+00
-2.607948e+00
-2.540278e+00
-2.525928e+00
-2.566686e+00
-2.662983e+00
-2.813813e+00
-3.000000e+00
-3.000000e+00
-3.000000e+00
-3.000000e+00
-3.000000e+00
-3.000000e+00
-3.000000e+00
-3.000000e+00
-3.000000e+00
-3.000000e+00
-3.000000e+00
-3.000000e+00
-3.000000e+00
-3.000000e+00
-3.000000e+00
-3.000000e+00
-3.000000e+00
-3.000000e+00
-3.000000e+00
-3.000000e+00
-2.895126e+00
-2.637875e+00
-2.418249e+00
-2.241564e+00
-2.112897e+00
-2.036781e+00
-2.016840e+00
-2.055408e+00
-2.153196e+00
-2.309139e+00
-2.520509e+00
-2.783270e+00
-3.000000e+00
-3.000000e+00
-3.000000e+00
-3.000000e+00
-3.000000e+00
-3.000000e+00
-3.000000e+00
-3.000000e+00
-3.000000e+00
-3.000000e+00
-3.000000e+00
-3.000000e+00
-3.000000e+00
-3.000000e+00
-3.000000e+00
-3.000000e+00
-3.000000e+00
-2.756098e+00
-2.453489e+00
-2.182613e+00