<?xml version="1.0"?>
<VTKFile byte_order="LittleEndian" version="1.0" type="ImageData">
<ImageData Origin="0.0000000000000000e+00 0.0000000000000000e+00 0.0000000000000000e+00" WholeExtent="0 29 0 29 0 29" Spacing="6.8965518474578857e-01 6.8965518474578857e-01 6.8965518474578857e-01">
<Piece Extent="0 29 0 29 0 29">
<PointData Scalars="wall">
<DataArray type="Float64" Name="wall" NumberOfComponents="1" format="ascii"/>-3.000000e+00
-3.000000e+00
-3.000000e+00
-3.000000e+00
-3.000000e+00
-3.000000e+00
-3.000000e+00
-3.000000e+00
-3.000000e+00
-3.000000e+00
-3.000000e+00
-3.000000e+00
-3.000000e+00
-3.000000e+00
-3.000000e+00
-3.000000e+00
-3.000000e+00
-3.000000e+00
-3.000000e+00
-3.000000e+00
-3.000000e+00
-3.000000e+00
-3.000000e+00
-3.000000e+00
-3.000000e+00
-3.000000e+00
-3.000000e+00
-3.000000e+00
-3.000000e+00
-3.000000e+00
-3.000000e+00
-3.000000e+00
-3.000000e+00
-3.000000e+00
-3.000000e+00
-3.000000e+00
-3.000000e+00
-3.000000e+00
-3.000000e+00
-3.000000e+00
-3.000000e+00
-3.000000e+00
-2.974896e+00
-2.794619e+00
-2.667414e+00
-2.596302e+00
-2.583018e+00
-2.627768e+00
-2.729231e+00
-2.884798e+00
-3.000000e+00
-3.000000e+00
-3.000000e+00
-3.000000e+00
-3.000000e+00
-3.000000e+00
-3.000000e+00
-3.000000e+00
-3.000000e+00
-3.000000e+00
-3.000000e+00
-3.000000e+00
-3.000000e+00
-3.000000e+00
-3.000000e+00
-3.000000e+00
-3.000000e+00
-3.000000e+00
-3.000000e+00
-3.000000e+00
-2.904363e+00
-2.606929e+00
-2.356174e+00
-2.157595e+00
-2.016315e+00
-1.936405e+00
-1.920211e+00
-1.967979e+00
-2.077890e+00
-2.246475e+00
-2.469195e+00
-2.740994e+00
-3.000000e+00
-3.000000e+00
-3.000000e+00
-3.000000e+00
-3.000000e+00
-3.000000e+00
-3.000000e+00
-3.000000e+00
-3.000000e+00
-3.000000e+00
-3.000000e+00
-3.000000e+00
-3.000000e+00
-3.000000e+00
-3.000000e+00
-3.000000e+00
-3.000000e+00
-2.707776e+00
-2.342669e+00
-2.019235e+00
-1.744006e+00
-1.524023e+00
-1.366129e+00
-1.275897e+00
-1.256544e+00
-1.308329e+00
-1.428674e+00
-1.612878e+00
-1.855042e+00
-2.148844e+00
-2.488079e+00
-2.866945e+00
-3.000000e+00
-3.000000e+00
-3.000000e+00
-3.000000e+00
-3.000000e+00
-3.000000e+00
-3.000000e+00
-3.000000e+00
-3.000000e+00
-3.000000e+00
-3.000000e+00
-3.000000e+00
-3.000000e+00
-3.000000e+00
-2.619171e+00
-2.190393e+00
-1.796393e+00
-1.443688e+00
-1.140175e+00
-8.949019e-01
-7.171203e-01
-6.146103e-01
-5.918614e-01
-6.490752e-01
-7.824833e-01
-9.856108e-01
-1.250722e+00
-1.569908e+00
-1.935704e+00
-2.341364e+00
-2.780933e+00
-3.000000e+00
-3.000000e+00
-3.000000e+00
-3.000000e+00
-3.000000e+00
-3.000000e+00
-3.000000e+00
-3.000000e+00
-3.000000e+00
-3.000000e+00
-3.000000e+00
-3.000000e+00
-2.637772e+00
-2.152501e+00
-1.694406e+00
-1.268996e+00
-8.834533e-01
-5.471390e-01
-2.716507e-01
-6.967130e-02
4.768439e-02
7.401539e-02
9.334019e-03
-1.406792e-01
-3.669526e-01
-6.592913e-01
-1.007815e+00
-1.403606e+00
-1.838893e+00
-2.307020e+00
-2.802350e+00
-3.000000e+00
-3.000000e+00
-3.000000e+00
-3.000000e+00
-3.000000e+00
-3.000000e+00
-3.000000e+00
-3.000000e+00
-3.000000e+00
-3.000000e+00
-2.757597e+00
-2.224968e+00
-1.712342e+00
-1.223822e+00
-7.647877e-01
-3.427209e-01
3.166458e-02
3.436576e-01
5.756522e-01
7.113179e-01
7.412740e-01
6.661075e-01
4.946519e-01
2.398041e-01
-8.497361e-02
-4.674167e-01
-8.969787e-01
-1.364815e+00
-1.863603e+00
-2.387337e+00
-2.931146e+00
-3.000000e+00
-3.000000e+00
-3.000000e+00
-3.000000e+00
-3.000000e+00
-3.000000e+00
-3.000000e+00
-3.000000e+00
-2.968487e+00
-2.398272e+00
-1.841962e+00
-1.302410e+00
-7.831733e-01
-2.890128e-01
1.729769e-01
5.913334e-01
9.478917e-01
1.217975e+00
1.376782e+00
1.410073e+00
1.319832e+00
1.120232e+00
8.298172e-01
4.662936e-01
4.471883e-02
-4.226108e-01
-9.258077e-01
-1.457001e+00
-2.009990e+00
-2.579942e+00
-3.000000e+00
-3.000000e+00
-3.000000e+00
-3.000000e+00
-3.000000e+00
-3.000000e+00
-3.000000e+00
-3.000000e+00
-2.659132e+00
-2.069772e+00
-1.491408e+00
-9.263269e-01
-3.772720e-01
1.521877e-01
6.564457e-01
1.124784e+00
1.536125e+00
1.855868e+00
2.044838e+00
2.080414e+00
1.967912e+00
1.730778e+00
1.395802e+00
9.860159e-01
5.195934e-01
1.057998e-02
-5.302756e-01
-1.094841e+00
-1.677039e+00
-2.272380e+00
-2.877562e+00
-3.000000e+00
-3.000000e+00
-3.000000e+00
-3.000000e+00
-3.000000e+00
-3.000000e+00
-2.992458e+00
-2.379497e+00
-1.773286e+00
-1.175281e+00
-5.871508e-01
-1.069119e-02
5.521827e-01
1.098707e+00
1.621754e+00
2.100258e+00
2.486836e+00
2.716727e+00
2.751790e+00
2.605424e+00
2.317502e+00
1.926510e+00
1.461798e+00
9.447704e-01
3.909357e-01
-1.886124e-01
-7.860662e-01
-1.396005e+00
-2.014701e+00
-2.639589e+00
-3.000000e+00
-3.000000e+00
-3.000000e+00
-3.000000e+00
-3.000000e+00
-3.000000e+00
-2.754421e+00
-2.129361e+00
-1.509023e+00
-8.944358e-01
-2.867217e-01
3.131585e-01
9.049436e-01
1.489646e+00
2.067760e+00
2.626354e+00
3.000000e+00
3.000000e+00
3.000000e+00
3.000000e+00
2.865213e+00
2.404002e+00
1.875259e+00
1.303153e+00
7.036091e-01
8.687067e-02
-5.406033e-01
-1.174783e+00
-1.813168e+00
-2.454188e+00
-3.000000e+00
-3.000000e+00
-3.000000e+00
-3.000000e+00
-3.000000e+00
-3.000000e+00
-2.542331e+00
-1.907633e+00
-1.276041e+00
-6.482437e-01
-2.497935e-02
5.932589e-01
1.207112e+00
1.820579e+00
2.444440e+00
3.000000e+00
3.000000e+00
3.000000e+00
3.000000e+00
3.000000e+00
3.000000e+00
2.798797e+00
2.199324e+00
1.572211e+00
9.309759e-01
2.828428e-01
-3.684069e-01
-1.020821e+00
-1.673414e+00
-2.325701e+00
-2.977468e+00
-3.000000e+00
-3.000000e+00
-3.000000e+00
-3.000000e+00
-2.998354e+00
-2.354689e+00
-1.712579e+00
-1.072391e+00
-4.345764e-01
2.003437e-01
8.319441e-01
1.460585e+00
2.090008e+00
2.736215e+00
3.000000e+00
3.000000e+00
3.000000e+00
3.000000e+00
3.000000e+00
3.000000e+00
3.000000e+00
2.397124e+00
1.725826e+00
1.055223e+00
3.872519e-01
-2.777275e-01
-9.399050e-01
-1.599637e+00
-2.257285e+00
-2.913179e+00
-3.000000e+00
-3.000000e+00
-3.000000e+00
-3.000000e+00
-2.838752e+00
-2.190166e+00
-1.542430e+00
-8.957634e-01
-2.504550e-01
3.931106e-01
1.034459e+00
1.673179e+00
2.309893e+00
2.952087e+00
3.000000e+00
3.000000e+00
3.000000e+00
3.000000e+00
3.000000e+00
3.000000e+00
3.000000e+00
2.430234e+00
1.742269e+00
1.064042e+00
3.929260e-01
-2.729501e-01
-9.348961e-01
-1.593843e+00
-2.250454e+00
-2.905218e+00
-3.000000e+00
-3.000000e+00
-3.000000e+00
-3.000000e+00
-2.700676e+00
-2.048359e+00
-1.396318e+00
-7.446415e-01
-9.345281e-02
5.570580e-01
1.206592e+00
1.854655e+00
2.500391e+00
3.000000e+00
3.000000e+00
3.000000e+00
3.000000e+00
3.000000e+00
3.000000e+00
3.000000e+00
2.960261e+00
2.284029e+00
1.617651e+00
9.572589e-01
3.007627e-01
-3.530577e-01
-1.004961e+00
-1.655450e+00
-2.304858e+00
-2.953429e+00
-3.000000e+00
-3.000000e+00
-3.000000e+00
-3.000000e+00
-2.585488e+00
-1.930521e+00
-1.275270e+00
-6.196173e-01
3.662409e-02
6.937781e-01
1.352454e+00
2.013941e+00
2.681466e+00
3.000000e+00
3.000000e+00
3.000000e+00
3.000000e+00
3.000000e+00
3.000000e+00
3.000000e+00
2.595394e+00
1.989585e+00
1.372487e+00
7.484621e-01
1.198889e-01
-5.118274e-01
-1.145803e+00
-1.781461e+00
-2.418399e+00
-3.000000e+00
-3.000000e+00
-3.000000e+00
-3.000000e+00
-3.000000e+00
-2.496271e+00
-1.839982e+00
-1.182805e+00
-5.242527e-01
1.365467e-01
8.012778e-01
1.473534e+00
2.162018e+00
2.891603e+00
3.000000e+00
3.000000e+00
3.000000e+00
3.000000e+00
3.000000e+00
3.000000e+00
2.634464e+00
2.138987e+00
1.603169e+00
1.040217e+00
4.587201e-01
-1.358159e-01
-7.397913e-01
-1.350783e+00
-1.967121e+00
-2.587609e+00
-3.000000e+00
-3.000000e+00
-3.000000e+00
-3.000000e+00
-3.000000e+00
-2.437763e+00
-1.782084e+00
-1.124924e+00
-4.651993e-01
1.991562e-01
8.723490e-01
1.563546e+00
2.294060e+00
3.000000e+00
3.000000e+00
3.000000e+00
3.000000e+00
3.000000e+00
2.894537e+00
2.511612e+00
2.102196e+00
1.653498e+00
1.167074e+00
6.496261e-01
1.080092e-01
-4.521804e-01
-1.026684e+00
-1.612325e+00
-2.206743e+00
-2.808163e+00
-3.000000e+00
-3.000000e+00
-3.000000e+00
-3.000000e+00
-3.000000e+00
-2.415958e+00
-1.763705e+00
-1.109579e+00
-4.517870e-01
2.131373e-01
8.920043e-01
1.597973e+00
2.352539e+00
3.000000e+00
3.000000e+00
3.000000e+00
3.000000e+00
2.713018e+00
2.339331e+00
1.967102e+00
1.574391e+00
1.152940e+00
7.002854e-01
2.183608e-01
-2.889235e-01
-8.173439e-01
-1.363089e+00
-1.922969e+00
-2.494403e+00
-3.000000e+00
-3.000000e+00
-3.000000e+00
-3.000000e+00
-3.000000e+00
-3.000000e+00
-2.437535e+00
-1.792576e+00
-1.145922e+00
-4.953243e-01
1.632875e-01
8.365725e-01
1.531938e+00
2.239436e+00
2.856605e+00
3.000000e+00
2.881959e+00
2.489530e+00
2.120720e+00
1.771765e+00
1.414593e+00
1.037960e+00
6.371716e-01
2.098971e-01
-2.438077e-01
-7.220679e-01
-1.222116e+00
-1.740987e+00
-2.275886e+00
-2.824356e+00
-3.000000e+00
-3.000000e+00
-3.000000e+00
-3.000000e+00
-3.000000e+00
-3.000000e+00
-2.509222e+00
-1.876502e+00
-1.243335e+00
-6.078203e-01
3.265173e-02
6.792061e-01
1.321121e+00
1.904045e+00
2.289934e+00
2.344917e+00
2.137802e+00
1.836748e+00
1.519858e+00
1.193882e+00
8.519222e-01
4.902270e-01
1.067417e-01
-3.000494e-01
-7.306345e-01
-1.184274e+00
-1.659315e+00
-2.153638e+00
-2.664994e+00
-3.000000e+00
-3.000000e+00
-3.000000e+00
-3.000000e+00
-3.000000e+00
-3.000000e+00
-3.000000e+00
-2.637109e+00
-2.022434e+00
-1.410053e+00
-7.995830e-01
-1.923717e-01
4.028057e-01
9.552265e-01
1.392557e+00
1.619706e+00
1.610762e+00
1.440902e+00
1.195011e+00
9.136759e-01
6.080332e-01
2.806028e-01
-6.753045e-02
-4.362042e-01
-8.259642e-01
-1.237270e+00
-1.669945e+00
-2.123097e+00
-2.595315e+00
-3.000000e+00
-3.000000e+00
-3.000000e+00
-3.000000e+00
-3.000000e+00
-3.000000e+00
-3.000000e+00
-3.000000e+00
-2.825855e+00
-2.235307e+00
-1.651273e+00
-1.075832e+00
-5.155089e-01
1.169275e-02
4.661930e-01
7.881206e-01
9.324430e-01
9.096285e-01
7.699310e-01
5.594060e-01
3.039858e-01
1.605500e-02
-2.977553e-01
-6.334997e-01
-9.892737e-01
-1.364629e+00
-1.759697e+00
-2.174490e+00
-2.608584e+00
-3.000000e+00
-3.000000e+00
-3.000000e+00
-3.000000e+00
-3.000000e+00
-3.000000e+00
-3.000000e+00
-3.000000e+00
-3.000000e+00
-3.000000e+00
-2.516756e+00
-1.967221e+00
-1.433824e+00
-9.272642e-01
-4.698026e-01
-9.781454e-02
1.495082e-01
2.546634e-01
2.324965e-01
1.141002e-01
-7.245856e-02
-3.081331e-01
-5.806852e-01
-8.818622e-01
-1.206173e+00
-1.550473e+00
-1.913415e+00
-2.294659e+00
-2.694155e+00
-3.000000e+00
-3.000000e+00
-3.000000e+00
-3.000000e+00
-3.000000e+00
-3.000000e+00
-3.000000e+00
-3.000000e+00
-3.000000e+00
-3.000000e+00
-3.000000e+00
-2.864145e+00
-2.352139e+00
-1.862587e+00
-1.408102e+00
-1.010452e+00
-6.982833e-01
-4.957681e-01
-4.097097e-01
-4.285463e-01
-5.323293e-01
-7.018785e-01
-9.219990e-01
-1.181169e+00
-1.470706e+00
-1.784395e+00
-2.118288e+00
-2.470308e+00
-2.839610e+00
-3.000000e+00
-3.000000e+00
-3.000000e+00
-3.000000e+00
-3.000000e+00
-3.000000e+00
-3.000000e+00
-3.000000e+00
-3.000000e+00
-3.000000e+00
-3.000000e+00
-3.000000e+00
-3.000000e+00
-2.795072e+00
-2.345936e+00
-1.935844e+00
-1.584190e+00
-1.312939e+00
-1.138001e+00
-1.062701e+00
-1.078840e+00
-1.172603e+00
-1.329614e+00
-1.537160e+00
-1.784631e+00
-2.063487e+00
-2.367275e+00
-2.691588e+00
-3.000000e+00
-3.000000e+00
-3.000000e+00
-3.000000e+00
-3.000000e+00
-3.000000e+00
-3.000000e+00
-3.000000e+00
-3.000000e+00
-3.000000e+00
-3.000000e+00
-3.000000e+00
-3.000000e+00
-3.000000e+00
-3.000000e+00
-3.000000e+00
-2.867013e+00
-2.491890e+00
-2.174163e+00
-1.931339e+00
-1.774961e+00
-1.707130e+00
-1.721827e+00
-1.808670e+00
-1.956144e+00
-2.153313e+00
-2.390498e+00
-2.659569e+00
-2.954120e+00
-3.000000e+00
-3.000000e+00
-3.000000e+00
-3.000000e+00
-3.000000e+00
-3.000000e+00
-3.000000e+00
-3.000000e+00
-3.000000e+00
-3.000000e+00
-3.000000e+00
-3.000000e+00
-3.000000e+00
-3.000000e+00
-3.000000e+00
-3.000000e+00
-3.000000e+00
-3.000000e+00
-3.000000e+00
-2.771198e+00
-2.549395e+00
-2.406976e+00
-2.345346e+00
-2.359720e+00
-2.441747e+00
-2.581777e+00
-2.770234e+00
-2.998325e+00
-3.000000e+00
-3.000000e+00
-3.000000e+00
-3.000000e+00
-3.000000e+00
-3.000000e+00
-3.000000e+00
-3.000000e+00
-3.000000e+00
-3.000000e+00
-3.000000e+00
-3.000000e+00
-3.000000e+00
-3.000000e+00
-3.000000e+00
-3.000000e+00
-3.000000e+00
-3.000000e+00
-3.000000e+00
-3.000000e+00
-3.000000e+00
-3.000000e+00
-3.000000e+00
-3.000000e+00
-2.979091e+00
-2.993983e+00
-3.000000e+00
-3.000000e+00
-3.000000e+00
-3.000000e+00
-3.000000e+00
-3.000000e+00
-3.000000e+00
-3.000000e+00
-3.000000e+00
-3.000000e+00
-3.000000e+00
-3.000000e+00
-3.000000e+00
-3.000000e+00
-3.000000e+00
-3.000000e+00
-3.000000e+00
-3.000000e+00
-3.000000e+00
-3.000000e+00
-3.000000e+00
-3.000000e+00
-3.000000e+00
-3.000000e+00
-3.000000e+00
-3.000000e+00
-3.000000e+00
-3.000000e+00
-3.000000e+00
-3.000000e+00
-3.000000e+00
-3.000000e+00
-3.000000e+00
-3.000000e+00
-3.000000e+00
-3.000000e+00
-3.000000e+00
-3.000000e+00
-3.000000e+00
-3.000000e+00
-3.000000e+00
-3.000000e+00
-3.000000e+00
-3.000000e+00
-3.000000e+00
-3.000000e+00
-3.000000e+00
-3.000000e+00
-3.000000e+00
-3.000000e+00
-3.000000e+00
-3.000000e+00
-3.000000e+00
-3.000000e+00
-3.000000e+00
-3.000000e+00
-3.000000e+00
-3.000000e+00
-3.000000e+00
-3.000000e+00
-3.000000e+00
-3.000000e+00
-3.000000e+00
-3.000000e+00
-3.000000e+00
-3.000000e+00
-3.000000e+00
-3.000000e+00
-3.000000e+00
-3.000000e+00
-3.000000e+00
-3.000000e+00
-3.000000e+00
-3.000000e+00
-3.000000e+00
-3.000000e+00
-3.000000e+00
-3.000000e+00
-3.000000e+00
-3.000000e+00
-3.000000e+00
-3.000000e+00
-3.000000e+00
-3.000000e+00
-3.000000e+00
-3.000000e+00
-3.000000e+00
-3.000000e+00
-3.000000e+00
-2.974896e+00
-2.794619e+00
-2.667414e+00
-2.596302e+00
-2.583018e+00
-2.627768e+00
-2.729231e+00
-2.884798e+00
-3.000000e+00
-3.000000e+00
-3.000000e+00
-3.000000e+00
-3.000000e+00
-3.000000e+00
-3.000000e+00
-3.000000e+00
-3.000000e+00
-3.000000e+00
-3.000000e+00
-3.000000e+00
-3.000000e+00
-3.000000e+00
-3.000000e+00
-3.000000e+00
-3.000000e+00
-3.000000e+00
-3.000000e+00
-3.000000e+00
-2.904363e+00
-2.606929e+00
-2.356174e+00
-2.157595e+00
-2.016315e+00
-1.936405e+00
-1.920211e+00
-1.967979e+00
-2.077890e+00
-2.246475e+00
-2.469195e+00
-2.740994e+00
-3.000000e+00
-3.000000e+00
-3.000000e+00
-3.000000e+00
-3.000000e+00
-3.000000e+00
-3.000000e+00
-3.000000e+00
-3.000000e+00
-3.000000e+00
-3.000000e+00
-3.000000e+00
-3.000000e+00
-3.000000e+00
-3.000000e+00
-3.000000e+00
-3.000000e+00
-2.707776e+00
-2.342669e+00
-2.019235e+00
-1.744006e+00
-1.524023e+00
-1.366129e+00
-1.275897e+00
-1.256544e+00
-1.308329e+00
-1.428674e+00
-1.612878e+00
-1.855042e+00
-2.148844e+00
-2.488079e+00
-2.866945e+00
-3.000000e+00
-3.000000e+00
-3.000000e+00
-3.000000e+00
-3.000000e+00
-3.000000e+00
-3.000000e+00
-3.000000e+00
-3.000000e+00
-3.000000e+00
-3.000000e+00
-3.000000e+00
-3.000000e+00
-3.000000e+00
-2.619171e+00
-2.190393e+00
-1.796393e+00
-1.443688e+00
-1.140175e+00
-8.949019e-01
-7.171203e-01
-6.146103e-01
-5.918614e-01
-6.490752e-01
-7.824833e-01
-9.856108e-01
-1.250722e+00
-1.569908e+00
-1.935704e+00
-2.341364e+00
-2.780933e+00
-3.000000e+00
-3.000000e+00
-3.000000e+00
-3.000000e+00
-3.000000e+00
-3.000000e+00
-3.000000e+00
-3.000000e+00
-3.000000e+00
-3.000000e+00
-3.000000e+00
-3.000000e+00
-2.637772e+00
-2.152501e+00
-1.694406e+00
-1.268996e+00
-8.834533e-01
-5.471390e-01
-2.716507e-01
-6.967130e-02
4.768439e-02
7.401539e-02
9.334019e-03
-1.406792e-01
-3.669526e-01
-6.592913e-01
-1.007815e+00
-1.403606e+00
-1.838893e+00
-2.307020e+00
-2.802350e+00
-3.000000e+00
-3.000000e+00
-3.000000e+00
-3.000000e+00
-3.000000e+00
-3.000000e+00
-3.000000e+00
-3.000000e+00
-3.000000e+00
-3.000000e+00
-2.757597e+00
-2.224968e+00
-1.712342e+00
-1.223822e+00
-7.647877e-01
-3.427209e-01
3.166458e-02
3.436576e-01
5.756522e-01
7.113179e-01
7.412740e-01
6.661075e-01
4.946519e-01
2.398041e-01
-8.497361e-02
-4.674167e-01
-8.969787e-01
-1.364815e+00
-1.863603e+00
-2.387337e+00
-2.931146e+00
-3.000000e+00
-3.000000e+00
-3.000000e+00
-3.000000e+00
-3.000000e+00
-3.000000e+00
-3.000000e+00
-3.000000e+00
-2.968487e+00
-2.398272e+00
-1.841962e+00
-1.302410e+00
-7.831733e-01
-2.890128e-01
1.729769e-01
5.913334e-01
9.478917e-01
1.217975e+00
1.376782e+00
1.410073e+00
1.319832e+00
1.120232e+00
8.298172e-01
4.662936e-01
4.471883e-02
-4.226108e-01
-9.258077e-01
-1.457001e+00
-2.009990e+00
-2.579942e+00
-3.000000e+00
-3.000000e+00
-3.000000e+00
-3.000000e+00
-3.000000e+00
-3.000000e+00
-3.000000e+00
-3.000000e+00
-2.659132e+00
-2.069772e+00
-1.491408e+00
-9.263269e-01
-3.772720e-01
1.521877e-01
6.564457e-01
1.124784e+00
1.536125e+00
1.855868e+00
2.044838e+00
2.080414e+00
1.967912e+00
1.730778e+00
1.395802e+00
9.860159e-01
5.195934e-01
1.057998e-02
-5.302756e-01
-1.094841e+00
-1.677039e+00
-2.272380e+00
-2.877562e+00
-3.000000e+00
-3.000000e+00
-3.000000e+00
-3.000000e+00
-3.000000e+00
-3.000000e+00
-2.992458e+00
-2.379497e+00
-1.773286e+00
-1.175281e+00
-5.871508e-01
-1.069119e-02
5.521827e-01
1.098707e+00
1.621754e+00
2.100258e+00
2.486836e+00
2.716727e+00
2.751790e+00
2.605424e+00
2.317502e+00
1.926510e+00
1.461798e+00
9.447704e-01
3.909357e-01
-1.886124e-01
-7.860662e-01
-1.396005e+00
-2.014701e+00
-2.639589e+00
-3.000000e+00
-3.000000e+00
-3.000000e+00
-3.000000e+00
-3.000000e+00
-3.000000e+00
-2.754421e+00
-2.129361e+00
-1.509023e+00
-8.944358e-01
-2.867217e-01
3.131585e-01
9.049436e-01
1.489646e+00
2.067760e+00
2.626354e+00
3.000000e+00
3.000000e+00
3.000000e+00
3.000000e+00
2.865213e+00
2.404002e+00
1.875259e+00
1.303153e+00
7.036091e-01
8.687067e-02
-5.406033e-01
-1.174783e+00
-1.813168e+00
-2.454188e+00
-3.000000e+00
-3.000000e+00
-3.000000e+00
-3.000000e+00
-3.000000e+00
-3.000000e+00
-2.542331e+00
-1.907633e+00
-1.276041e+00
-6.482437e-01
-2.497935e-02
5.932589e-01
1.207112e+00
1.820579e+00
2.444440e+00
3.000000e+00
3.000000e+00
3.000000e+00
3.000000e+00
3.000000e+00
3.000000e+00
2.798797e+00
2.199324e+00
1.572211e+00
9.309759e-01
2.828428e-01
-3.684069e-01
-1.020821e+00
-1.673414e+00
-2.325701e+00
-2.977468e+00
-3.000000e+00
-3.000000e+00
-3.000000e+00
-3.000000e+00
-2.998354e+00
-2.354689e+00
-1.712579e+00
-1.072391e+00
-4.345764e-01
2.003437e-01
8.319441e-01
1.460585e+00
2.090008e+00
2.736215e+00
3.000000e+00
3.000000e+00
3.000000e+00
3.000000e+00
3.000000e+00
3.000000e+00
3.000000e+00
2.397124e+00
1.725826e+00
1.055223e+00
3.872519e-01
-2.777275e-01
-9.399050e-01
-1.599637e+00
-2.257285e+00
-2.913179e+00
-3.000000e+00
-3.000000e+00
-3.000000e+00
-3.000000e+00
-2.838752e+00
-2.190166e+00
-1.542430e+00
-8.957634e-01
-2.504550e-01
3.931106e-01
1.034459e+00
1.673179e+00
2.309893e+00
2.952087e+00
3.000000e+00
3.000000e+00
3.000000e+00
3.000000e+00
3.000000e+00
3.000000e+00
3.000000e+00
2.430234e+00
1.742269e+00
1.064042e+00
3.929260e-01
-2.729501e-01
-9.348961e-01
-1.593843e+00
-2.250454e+00
-2.905218e+00
-3.000000e+00
-3.000000e+00
-3.000000e+00
-3.000000e+00
-2.700676e+00
-2.048359e+00
-1.396318e+00
-7.446415e-01
-9.345281e-02
5.570580e-01
1.206592e+00
1.854655e+00
2.500391e+00
3.000000e+00
3.000000e+00
3.000000e+00
3.000000e+00
3.000000e+00
3.000000e+00
3.000000e+00
2.960261e+00
2.284029e+00
1.617651e+00
9.572589e-01
3.007627e-01
-3.530577e-01
-1.004961e+00
-1.655450e+00
-2.304858e+00
-2.953429e+00
-3.000000e+00
-3.000000e+00
-3.000000e+00
-3.000000e+00
-2.585488e+00
-1.930521e+00
-1.275270e+00
-6.196173e-01
3.662409e-02
6.937781e-01
1.352454e+00
2.013941e+00
2.681466e+00
3.000000e+00
3.000000e+00
3.000000e+00
3.000000e+00
3.000000e+00
3.000000e+00
3.000000e+00
2.595394e+00
1.989585e+00
1.372487e+00
7.484621e-01
1.198889e-01
-5.118274e-01
-1.145803e+00
-1.781461e+00
-2.418399e+00
-3.000000e+00
-3.000000e+00
-3.000000e+00
-3.000000e+00
-3.000000e+00
-2.496271e+00
-1.839982e+00
-1.182805e+00
-5.242527e-01
1.365467e-01
8.012778e-01
1.473534e+00
2.162018e+00
2.891603e+00
3.000000e+00
3.000000e+00
3.000000e+00
3.000000e+00
3.000000e+00
3.000000e+00
2.634464e+00
2.138987e+00
1.603169e+00
1.040217e+00
4.587201e-01
-1.358159e-01
-7.397913e-01
-1.350783e+00
-1.967121e+00
-2.587609e+00
-3.000000e+00
-3.000000e+00
-3.000000e+00
-3.000000e+00
-3.000000e+00
-2.437763e+00
-1.782084e+00
-1.124924e+00
-4.651993e-01
1.991562e-01
8.723490e-01
1.563546e+00
2.294060e+00
3.000000e+00
3.000000e+00
3.000000e+00
3.000000e+00
3.000000e+00
2.894537e+00
2.511612e+00
2.102196e+00
1.653498e+00
1.167074e+00
6.496261e-01
1.080092e-01
-4.521804e-01
-1.026684e+00
-1.612325e+00
-2.206743e+00
-2.808163e+00
-3.000000e+00
-3.000000e+00
-3.000000e+00
-3.000000e+00
-3.000000e+00
-2.415958e+00
-1.763705e+00
-1.109579e+00
-4.517870e-01
2.131373e-01
8.920043e-01
1.597973e+00
2.352539e+00
3.000000e+00
3.000000e+00
3.000000e+00
3.000000e+00
2.713018e+00
2.339331e+00
1.967102e+00
1.574391e+00
1.152940e+00
7.002854e-01
2.183608e-01
-2.889235e-01
-8.173439e-01
-1.363089e+00
-1.922969e+00
-2.494403e+00
-3.000000e+00
-3.000000e+00
-3.000000e+00
-3.000000e+00
-3.000000e+00
-3.000000e+00
-2.437535e+00
-1.792576e+00
-1.145922e+00
-4.953243e-01
1.632875e-01
8.365725e-01
1.531938e+00
2.239436e+00
2.856605e+00
3.000000e+00
2.881959e+00
2.489530e+00
2.120720e+00
1.771765e+00
1.414593e+00
1.037960e+00
6.371716e-01
2.098971e-01
-2.438077e-01
-7.220679e-01
-1.222116e+00
-1.740987e+00
-2.275886e+00
-2.824356e+00
-3.000000e+00
-3.000000e+00
-3.000000e+00
-3.000000e+00
-3.000000e+00
-3.000000e+00
-2.509222e+00
-1.876502e+00
-1.243335e+00
-6.078203e-01
3.265173e-02
6.792061e-01
1.321121e+00
1.904045e+00
2.289934e+00
2.344917e+00
2.137802e+00
1.836748e+00
1.519858e+00
1.193882e+00
8.519222e-01
4.902270e-01
1.067417e-01
-3.000494e-01
-7.306345e-01
-1.184274e+00
-1.659315e+00
-2.153638e+00
-2.664994e+00
-3.000000e+00
-3.000000e+00
-3.000000e+00
-3.000000e+00
-3.000000e+00
-3.000000e+00
-3.000000e+00
-2.637109e+00
-2.022434e+00
-1.410053e+00
-7.995830e-01
-1.923717e-01
4.028057e-01
9.552265e-01
1.392557e+00
1.619706e+00
1.610762e+00
1.440902e+00
1.195011e+00
9.136759e-01
6.080332e-01
2.806028e-01
-6.753045e-02
-4.362042e-01
-8.259642e-01
-1.237270e+00
-1.669945e+00
-2.123097e+00
-2.595315e+00
-3.000000e+00
-3.000000e+00
-3.000000e+00
-3.000000e+00
-3.000000e+00
-3.000000e+00
-3.000000e+00
-3.000000e+00
-2.825855e+00
-2.235307e+00
-1.651273e+00
-1.075832e+00
-5.155089e-01
1.169275e-02
4.661930e-01
7.881206e-01
9.324430e-01
9.096285e-01
7.699310e-01
5.594060e-01
3.039858e-01
1.605500e-02
-2.977553e-01
-6.334997e-01
-9.892737e-01
-1.364629e+00
-1.759697e+00
-2.174490e+00
-2.608584e+00
-3.000000e+00
-3.000000e+00
-3.000000e+00
-3.000000e+00
-3.000000e+00
-3.000000e+00
-3.000000e+00
-3.000000e+00
-3.000000e+00
-3.000000e+00
-2.516756e+00
-1.967221e+00
-1.433824e+00
-9.272642e-01
-4.698026e-01
-9.781454e-02
1.495082e-01
2.546634e-01
2.324965e-01
1.141002e-01
-7.245856e-02
-3.081331e-01
-5.806852e-01
-8.818622e-01
-1.206173e+00
-1.550473e+00
-1.913415e+00
-2.294659e+00
-2.694155e+00
-3.000000e+00
-3.000000e+00
-3.000000e+00
-3.000000e+00
-3.000000e+00
-3.000000e+00
-3.000000e+00
-3.000000e+00
-3.000000e+00
-3.000000e+00
-3.000000e+00
-2.864145e+00
-2.352139e+00
-1.862587e+00
-1.408102e+00
-1.010452e+00
-6.982833e-01
-4.957681e-01
-4.097097e-01
-4.285463e-01
-5.323293e-01
-7.018785e-01
-9.219990e-01
-1.181169e+00
-1.470706e+00
-1.784395e+00
-2.118288e+00
-2.470308e+00
-2.839610e+00
-3.000000e+00
-3.000000e+00
-3.000000e+00
-3.000000e+00
-3.000000e+00
-3.000000e+00
-3.000000e+00
-3.000000e+00
-3.000000e+00
-3.000000e+00
-3.000000e+00
-3.000000e+00
-3.000000e+00
-2.795072e+00
-2.345936e+00
-1.935844e+00
-1.584190e+00
-1.312939e+00
-1.138001e+00
-1.062701e+00
-1.078840e+00
-1.172603e+00
-1.329614e+00
-1.537160e+00
-1.784631e+00
-2.063487e+00
-2.367275e+00
-2.691588e+00
-3.000000e+00
-3.000000e+00
-3.000000e+00
-3.000000e+00
-3.000000e+00
-3.000000e+00
-3.000000e+00
-3.000000e+00
-3.000000e+00
-3.000000e+00
-3.000000e+00
-3.000000e+00
-3.000000e+00
-3.000000e+00
-3.000000e+00
-3.000000e+00
-2.867013e+00
-2.491890e+00
-2.174163e+00
-1.931339e+00
-1.774961e+00
-1.707130e+00
-1.721827e+00
-1.808670e+00
-1.956144e+00
-2.153313e+00
-2.390498e+00
-2.659569e+00
-2.954120e+00
-3.000000e+00
-3.000000e+00
-3.000000e+00
-3.000000e+00
-3.000000e+00
-3.000000e+00
-3.000000e+00
-3.000000e+00
-3.000000e+00
-3.000000e+00
-3.000000e+00
-3.000000e+00
-3.000000e+00
-3.000000e+00
-3.000000e+00
-3.000000e+00
-3.000000e+00
-3.000000e+00
-3.000000e+00
-2.771198e+00
-2.549395e+00
-2.406976e+00
-2.345346e+00
-2.359720e+00
-2.441747e+00
-2.581777e+00
-2.770234e+00
-2.998325e+00
-3.000000e+00
-3.000000e+00
-3.000000e+00
-3.000000e+00
-3.000000e+00
-3.000000e+00
-3.000000e+00
-3.000000e+00
-3.000000e+00
-3.000000e+00
-3.000000e+00
-3.000000e+00
-3.000000e+00
-3.000000e+00
-3.000000e+00
-3.000000e+00
-3.000000e+00
-3.000000e+00
-3.000000e+00
-3.000000e+00
-3.000000e+00
-3.000000e+00
-3.000000e+00
-3.000000e+00
-2.979091e+00
-2.993983e+00
-3.000000e+00
-3.000000e+00
-3.000000e+00
-3.000000e+00
-3.000000e+00
-3.000000e+00
-3.000000e+00
-3.000000e+00
-3.000000e+00
-3.000000e+00
-3.000000e+00
-3.000000e+00
-3.000000e+00
-3.000000e+00
-3.000000e+00
-3.000000e+00
-3.000000e+00
-3.000000e+00
-3.000000e+00
-3.000000e+00
-3.000000e+00
-3.000000e+00
-3.000000e+00
-3.000000e+00
-3.000000e+00
-3.000000e+00
-3.000000e+00
-3.000000e+00
-3.000000e+00
-3.000000e+00
-3.000000e+00
-3.000000e+00
-3.000000e+00
-3.000000e+00
-3.000000e+00
-3.000000e+00
-3.000000e+00
-3.000000e+00
-3.000000e+00
-3.000000e+00
-3.000000e+00
-3.000000e+00
-3.000000e+00
-3.000000e+00
-3.000000e+00
-3.000000e+00
-3.000000e+00
-3.000000e+00
-3.000000e+00
-3.000000e+00
-3.000000e+00
-3.000000e+00
-3.000000e+00
-3.000000e+00
-3.000000e+00
-3.000000e+00
-3.000000e+00
-3.000000e+00
-3.000000e+00
-3.000000e+00
-3.000000e+00
-3.000000e+00
-3.000000e+00
-3.000000e+00
-3.000000e+00
-3.000000e+00
-3.000000e+00
-3.000000e+00
-3.000000e+00
-3.000000e+00
-3.000000e+00
-3.000000e+00
-3.000000e+00
-3.000000e+00
-3.000000e+00
-3.000000e+00
-3.000000e+00
-3.000000e+00
-3.000000e+00
-3.000000e+00
-3.000000e+00
-3.000000e+00
-3.000000e+00
-3.000000e+00
-3.000000e+00
-3.000000e+00
-3.000000e+00
-3.000000e+00
-3.000000e+00
-2.974896e+00
-2.794619e+00
-2.667414e+00
-2.596302e+00
-2.583018e+00
-2.627768e+00
-2.729231e+00
-2.884798e+00
-3.000000e+00
-3.000000e+00
-3.000000e+00
-3.000000e+00
-3.000000e+00
-3.000000e+00
-3.000000e+00
-3.000000e+00
-3.000000e+00
-3.000000e+00
-3.000000e+00
-3.000000e+00
-3.000000e+00
-3.000000e+00
-3.000000e+00
-3.000000e+00
-3.000000e+00
-3.000000e+00
-3.000000e+00
-3.000000e+00
-2.904363e+00
-2.606929e+00
-2.356174e+00
-2.157595e+00
-2.016315e+00
-1.936405e+00
-1.920211e+00
-1.967979e+00
-2.077890e+00
-2.246475e+00
-2.469195e+00
-2.740994e+00
-3.000000e+00
-3.000000e+00
-3.000000e+00
-3.000000e+00
-3.000000e+00
-3.000000e+00
-3.000000e+00
-3.000000e+00
-3.000000e+00
-3.000000e+00
-3.000000e+00
-3.000000e+00
-3.000000e+00
-3.000000e+00
-3.000000e+00
-3.000000e+00
-3.000000e+00
-2.707776e+00
-2.342669e+00
-2.019235e+00
-1.744006e+00
-1.524023e+00
-1.366129e+00
-1.275897e+00
-1.256544e+00
-1.308329e+00
-1.428674e+00
-1.612878e+00
-1.855042e+00
-2.148844e+00
-2.488079e+00
-2.866945e+00
-3.000000e+00
-3.000000e+00
-3.000000e+00
-3.000000e+00
-3.000000e+00
-3.000000e+00
-3.000000e+00
-3.000000e+00
-3.000000e+00
-3.000000e+00
-3.000000e+00
-3.000000e+00
-3.000000e+00
-3.000000e+00
-2.619171e+00
-2.190393e+00
-1.796393e+00
-1.443688e+00
-1.140175e+00
-8.949019e-01
-7.171203e-01
-6.146103e-01
-5.918614e-01
-6.490752e-01
-7.824833e-01
-9.856108e-01
-1.250722e+00
-1.569908e+00
-1.935704e+00
-2.341364e+00
-2.780933e+00
-3.000000e+00
-3.000000e+00
-3.000000e+00
-3.000000e+00
-3.000000e+00
-3.000000e+00
-3.000000e+00
-3.000000e+00
-3.000000e+00
-3.000000e+00
-3.000000e+00
-3.000000e+00
-2.637772e+00
-2.152501e+00
-1.694406e+00
-1.268996e+00
-8.834533e-01
-5.471390e-01
-2.716507e-01
-6.967130e-02
4.768439e-02
7.401539e-02
9.334019e-03
-1.406792e-01
-3.669526e-01
-6.592913e-01
-1.007815e+00
-1.403606e+00
-1.838893e+00
-2.307020e+00
-2.802350e+00
-3.000000e+00
-3.000000e+00
-3.000000e+00
-3.000000e+00
-3.000000e+00
-3.000000e+00
-3.000000e+00
-3.000000e+00
-3.000000e+00
-3.000000e+00
-2.757597e+00
-2.224968e+00
-1.712342e+00
-1.223822e+00
-7.647877e-01
-3.427209e-01
3.166458e-02
3.436576e-01
5.756522e-01
7.113179e-01
7.412740e-01
6.661075e-01
4.946519e-01
2.398041e-01
-8.497361e-02
-4.674167e-01
-8.969787e-01
-1.364815e+00
-1.863603e+00
-2.387337e+00
-2.931146e+00
-3.000000e+00
-3.000000e+00
-3.000000e+00
-3.000000e+00
-3.000000e+00
-3.000000e+00
-3.000000e+00
-3.000000e+00
-2.968487e+00
-2.398272e+00
-1.841962e+00
-1.302410e+00
-7.831733e-01
-2.890128e-01
1.729769e-01
5.913334e-01
9.478917e-01
1.217975e+00
1.376782e+00
1.410073e+00
1.319832e+00
1.120232e+00
8.298172e-01
4.662936e-01
4.471883e-02
-4.226108e-01
-9.258077e-01
-1.457001e+00
-2.009990e+00
-2.579942e+00
-3.000000e+00
-3.000000e+00
-3.000000e+00
-3.000000e+00
-3.000000e+00
-3.000000e+00
-3.000000e+00
-3.000000e+00
-2.659132e+00
-2.069772e+00
-1.491408e+00
-9.263269e-01
-3.772720e-01
1.521877e-01
6.564457e-01
1.124784e+00
1.536125e+00
1.855868e+00
2.044838e+00
2.080414e+00
1.967912e+00
1.730778e+00
1.395802e+00
9.860159e-01
5.195934e-01
1.057998e-02
-5.302756e-01
-1.094841e+00
-1.677039e+00
-2.272380e+00
-2.877562e+00
-3.000000e+00
-3.000000e+00
-3.000000e+00
-3.000000e+00
-3.000000e+00
-3.000000e+00
-2.992458e+00
-2.379497e+00
-1.773286e+00
-1.175281e+00
-5.871508e-01
-1.069119e-02
5.521827e-01
1.098707e+00
1.621754e+00
2.100258e+00
2.486836e+00
2.716727e+00
2.751790e+00
2.605424e+00
2.317502e+00
1.926510e+00
1.461798e+00
9.447704e-01
3.909357e-01
-1.886124e-01
-7.860662e-01
-1.396005e+00
-2.014701e+00
-2.639589e+00
-3.000000e+00
-3.000000e+00
-3.000000e+00
-3.000000e+00
-3.000000e+00
-3.000000e+00
-2.754421e+00
-2.129361e+00
-1.509023e+00
-8.944358e-01
-2.867217e-01
3.131585e-01
9.049436e-01
1.489646e+00
2.067760e+00
2.626354e+00
3.000000e+00
3.000000e+00
3.000000e+00
3.000000e+00
2.865213e+00
2.404002e+00
1.875259e+00
1.303153e+00
7.036091e-01
8.687067e-02
-5.406033e-01
-1.174783e+00
-1.813168e+00
-2.454188e+00
-3.000000e+00
-3.000000e+00
-3.000000e+00
-3.000000e+00
-3.000000e+00
-3.000000e+00
-2.542331e+00
-1.907633e+00
-1.276041e+00
-6.482437e-01
-2.497935e-02
5.932589e-01
1.207112e+00
1.820579e+00
2.444440e+00
3.000000e+00
3.000000e+00
3.000000e+00
3.000000e+00
3.000000e+00
3.000000e+00
2.798797e+00
2.199324e+00
1.572211e+00