(kill(all), 'done);
'done$

(load("maxima2dump.mac"), 'done);
'done$

block([s, fpprec: 16],
  s: make_string_output_stream(),
  maxima2dump([ [0, 0], [1, 1], [2, 2], [3, 3] ], s),
  get_output_stream_string(s));
"LAMMPS configuration file generated with maxima2dump.mac

4  atoms
4  bonds
4  angles

1   atom types
1   bond types
1   angle types

-7.0000000000000000e+0 7.0000000000000000e+0 xlo xhi
-7.0000000000000000e+0 7.0000000000000000e+0 ylo yhi
-1.0000000000000000e-1 1.0000000000000000e-1 zlo zhi

Atoms

1 1 1 .0000000000000000e+0 .0000000000000000e+0 .0000000000000000e+0
2 1 1 1.0000000000000000e+0 1.0000000000000000e+0 .0000000000000000e+0
3 1 1 2.0000000000000000e+0 2.0000000000000000e+0 .0000000000000000e+0
4 1 1 3.0000000000000000e+0 3.0000000000000000e+0 .0000000000000000e+0

Bonds

1 1 1 2
2 1 2 3
3 1 3 4
4 1 4 1

Angles

1 1 1 2 3
2 1 2 3 4
3 1 3 4 1
4 1 4 1 2
"$
